  16  16   0   0
  0.1766572E+02  0.6107032E-09  0.5929062E-09  0.7806749E-09  0.5000000E-15
   1.0000000000000000E-004
  CAR 
 unknown system                          
     11.20463597    -43.57208774  301      2.30341836      1.00000000
    -43.572  0.0000E+00  0.0000E+00
    -43.389  0.0000E+00  0.0000E+00
    -43.207  0.0000E+00  0.0000E+00
    -43.024  0.0000E+00  0.0000E+00
    -42.842  0.0000E+00  0.0000E+00
    -42.659  0.0000E+00  0.0000E+00
    -42.477  0.0000E+00  0.0000E+00
    -42.294  0.0000E+00  0.0000E+00
    -42.111  0.0000E+00  0.0000E+00
    -41.929  0.0000E+00  0.0000E+00
    -41.746  0.0000E+00  0.0000E+00
    -41.564  0.0000E+00  0.0000E+00
    -41.381  0.0000E+00  0.0000E+00
    -41.198  0.0000E+00  0.0000E+00
    -41.016  0.0000E+00  0.1333E-01
    -40.833  0.0000E+00  0.1333E-01
    -40.651  0.0000E+00  0.4000E-01
    -40.468  0.0000E+00  0.4000E-01
    -40.285  0.0000E+00  0.4000E-01
    -40.103  0.0000E+00  0.4000E-01
    -39.920  0.0000E+00  0.4000E-01
    -39.738  0.0000E+00  0.4000E-01
    -39.555  0.0000E+00  0.4000E-01
    -39.373  0.0000E+00  0.4000E-01
    -39.190  0.0000E+00  0.4000E-01
    -39.007  0.0000E+00  0.4000E-01
    -38.825  0.0000E+00  0.4000E-01
    -38.642  0.0000E+00  0.4000E-01
    -38.460  0.0000E+00  0.4000E-01
    -38.277  0.0000E+00  0.4000E-01
    -38.094  0.0000E+00  0.4000E-01
    -37.912  0.0000E+00  0.4000E-01
    -37.729  0.0000E+00  0.4000E-01
    -37.547  0.0000E+00  0.4000E-01
    -37.364  0.0000E+00  0.4000E-01
    -37.181  0.0000E+00  0.4000E-01
    -36.999  0.0000E+00  0.4000E-01
    -36.816  0.0000E+00  0.4000E-01
    -36.634  0.0000E+00  0.4000E-01
    -36.451  0.0000E+00  0.4000E-01
    -36.269  0.0000E+00  0.4000E-01
    -36.086  0.0000E+00  0.4000E-01
    -35.903  0.0000E+00  0.4000E-01
    -35.721  0.0000E+00  0.4000E-01
    -35.538  0.0000E+00  0.4000E-01
    -35.356  0.0000E+00  0.4000E-01
    -35.173  0.0000E+00  0.4000E-01
    -34.990  0.0000E+00  0.4000E-01
    -34.808  0.0000E+00  0.4000E-01
    -34.625  0.0000E+00  0.4000E-01
    -34.443  0.0000E+00  0.4000E-01
    -34.260  0.0000E+00  0.4000E-01
    -34.077  0.0000E+00  0.4000E-01
    -33.895  0.0000E+00  0.4000E-01
    -33.712  0.0000E+00  0.4000E-01
    -33.530  0.0000E+00  0.4000E-01
    -33.347  0.0000E+00  0.4000E-01
    -33.165  0.0000E+00  0.4000E-01
    -32.982  0.0000E+00  0.4000E-01
    -32.799  0.0000E+00  0.4000E-01
    -32.617  0.0000E+00  0.4000E-01
    -32.434  0.0000E+00  0.4000E-01
    -32.252  0.0000E+00  0.4000E-01
    -32.069  0.0000E+00  0.4000E-01
    -31.886  0.0000E+00  0.4000E-01
    -31.704  0.0000E+00  0.4000E-01
    -31.521  0.0000E+00  0.4000E-01
    -31.339  0.0000E+00  0.4000E-01
    -31.156  0.0000E+00  0.4000E-01
    -30.973  0.0000E+00  0.4000E-01
    -30.791  0.0000E+00  0.4000E-01
    -30.608  0.0000E+00  0.4000E-01
    -30.426  0.0000E+00  0.4000E-01
    -30.243  0.0000E+00  0.4000E-01
    -30.060  0.0000E+00  0.4000E-01
    -29.878  0.0000E+00  0.4000E-01
    -29.695  0.0000E+00  0.4000E-01
    -29.513  0.0000E+00  0.4000E-01
    -29.330  0.0000E+00  0.4000E-01
    -29.148  0.0000E+00  0.4000E-01
    -28.965  0.0000E+00  0.4000E-01
    -28.782  0.0000E+00  0.4000E-01
    -28.600  0.0000E+00  0.4000E-01
    -28.417  0.0000E+00  0.4000E-01
    -28.235  0.0000E+00  0.4000E-01
    -28.052  0.0000E+00  0.4000E-01
    -27.869  0.0000E+00  0.4000E-01
    -27.687  0.0000E+00  0.4000E-01
    -27.504  0.0000E+00  0.4000E-01
    -27.322  0.0000E+00  0.4000E-01
    -27.139  0.0000E+00  0.4000E-01
    -26.956  0.0000E+00  0.4000E-01
    -26.774  0.0000E+00  0.4000E-01
    -26.591  0.0000E+00  0.4000E-01
    -26.409  0.0000E+00  0.4000E-01
    -26.226  0.0000E+00  0.4000E-01
    -26.044  0.0000E+00  0.4000E-01
    -25.861  0.0000E+00  0.4000E-01
    -25.678  0.0000E+00  0.4000E-01
    -25.496  0.0000E+00  0.4000E-01
    -25.313  0.0000E+00  0.4000E-01
    -25.131  0.0000E+00  0.4000E-01
    -24.948  0.0000E+00  0.4000E-01
    -24.765  0.0000E+00  0.4000E-01
    -24.583  0.0000E+00  0.4000E-01
    -24.400  0.0000E+00  0.4000E-01
    -24.218  0.0000E+00  0.4000E-01
    -24.035  0.0000E+00  0.4000E-01
    -23.852  0.0000E+00  0.4000E-01
    -23.670  0.0000E+00  0.4000E-01
    -23.487  0.0000E+00  0.4000E-01
    -23.305  0.0000E+00  0.4000E-01
    -23.122  0.0000E+00  0.4000E-01
    -22.940  0.0000E+00  0.4000E-01
    -22.757  0.0000E+00  0.4000E-01
    -22.574  0.0000E+00  0.4000E-01
    -22.392  0.0000E+00  0.4000E-01
    -22.209  0.0000E+00  0.4000E-01
    -22.027  0.0000E+00  0.4000E-01
    -21.844  0.0000E+00  0.4000E-01
    -21.661  0.0000E+00  0.4000E-01
    -21.479  0.0000E+00  0.4000E-01
    -21.296  0.0000E+00  0.4000E-01
    -21.114  0.0000E+00  0.4000E-01
    -20.931  0.0000E+00  0.4000E-01
    -20.748  0.0000E+00  0.4000E-01
    -20.566  0.0000E+00  0.4000E-01
    -20.383  0.0000E+00  0.4000E-01
    -20.201  0.0000E+00  0.4000E-01
    -20.018  0.0000E+00  0.4000E-01
    -19.836  0.0000E+00  0.4000E-01
    -19.653  0.0000E+00  0.4000E-01
    -19.470  0.0000E+00  0.4000E-01
    -19.288  0.0000E+00  0.4000E-01
    -19.105  0.0000E+00  0.4000E-01
    -18.923  0.0000E+00  0.4000E-01
    -18.740  0.0000E+00  0.4000E-01
    -18.557  0.0000E+00  0.4000E-01
    -18.375  0.0000E+00  0.4000E-01
    -18.192  0.0000E+00  0.4000E-01
    -18.010  0.0000E+00  0.4000E-01
    -17.827  0.0000E+00  0.4000E-01
    -17.644  0.0000E+00  0.4000E-01
    -17.462  0.0000E+00  0.4000E-01
    -17.279  0.0000E+00  0.4000E-01
    -17.097  0.0000E+00  0.4000E-01
    -16.914  0.0000E+00  0.4000E-01
    -16.731  0.0000E+00  0.4000E-01
    -16.549  0.0000E+00  0.4000E-01
    -16.366  0.0000E+00  0.4000E-01
    -16.184  0.0000E+00  0.4000E-01
    -16.001  0.0000E+00  0.4000E-01
    -15.819  0.0000E+00  0.4000E-01
    -15.636  0.0000E+00  0.4000E-01
    -15.453  0.0000E+00  0.4000E-01
    -15.271  0.0000E+00  0.4000E-01
    -15.088  0.0000E+00  0.4000E-01
    -14.906  0.0000E+00  0.4000E-01
    -14.723  0.0000E+00  0.4000E-01
    -14.540  0.0000E+00  0.4000E-01
    -14.358  0.0000E+00  0.4000E-01
    -14.175  0.0000E+00  0.4000E-01
    -13.993  0.0000E+00  0.4000E-01
    -13.810  0.0000E+00  0.4000E-01
    -13.627  0.0000E+00  0.4000E-01
    -13.445  0.0000E+00  0.4000E-01
    -13.262  0.0000E+00  0.4000E-01
    -13.080  0.0000E+00  0.4000E-01
    -12.897  0.0000E+00  0.4000E-01
    -12.715  0.0000E+00  0.4000E-01
    -12.532  0.1208E+00  0.4393E-01
    -12.349  0.0000E+00  0.5333E-01
    -12.167  0.0000E+00  0.5333E-01
    -11.984  0.0000E+00  0.5333E-01
    -11.802  0.0000E+00  0.5333E-01
    -11.619  0.0000E+00  0.5333E-01
    -11.436  0.0000E+00  0.5333E-01
    -11.254  0.0000E+00  0.5333E-01
    -11.071  0.0000E+00  0.5333E-01
    -10.889  0.0000E+00  0.5333E-01
    -10.706  0.0000E+00  0.5333E-01
    -10.523  0.0000E+00  0.5333E-01
    -10.341  0.0000E+00  0.5333E-01
    -10.158  0.0000E+00  0.5333E-01
     -9.976  0.0000E+00  0.5333E-01
     -9.793  0.0000E+00  0.5333E-01
     -9.611  0.1982E+00  0.5517E-01
     -9.428  0.1500E+00  0.7458E-01
     -9.245  0.0000E+00  0.9333E-01
     -9.063  0.0000E+00  0.9333E-01
     -8.880  0.0000E+00  0.9333E-01
     -8.698  0.0000E+00  0.9333E-01
     -8.515  0.0000E+00  0.9333E-01
     -8.332  0.0000E+00  0.9333E-01
     -8.150  0.0000E+00  0.9333E-01
     -7.967  0.0000E+00  0.9333E-01
     -7.785  0.0000E+00  0.9333E-01
     -7.602  0.0000E+00  0.9333E-01
     -7.419  0.0000E+00  0.9333E-01
     -7.237  0.0000E+00  0.9333E-01
     -7.054  0.0000E+00  0.9333E-01
     -6.872  0.0000E+00  0.9333E-01
     -6.689  0.0000E+00  0.9333E-01
     -6.507  0.0000E+00  0.9333E-01
     -6.324  0.0000E+00  0.9333E-01
     -6.141  0.0000E+00  0.9333E-01
     -5.959  0.0000E+00  0.9333E-01
     -5.776  0.0000E+00  0.9333E-01
     -5.594  0.1951E-03  0.9334E-01
     -5.411  0.1359E-01  0.9404E-01
     -5.228  0.2209E-01  0.9916E-01
     -5.046  0.0000E+00  0.1067E+00
     -4.863  0.0000E+00  0.1067E+00
     -4.681  0.0000E+00  0.1067E+00
     -4.498  0.0000E+00  0.1067E+00
     -4.315  0.0000E+00  0.1067E+00
     -4.133  0.0000E+00  0.1067E+00
     -3.950  0.0000E+00  0.1067E+00
     -3.768  0.0000E+00  0.1067E+00
     -3.585  0.0000E+00  0.1067E+00
     -3.402  0.0000E+00  0.1067E+00
     -3.220  0.0000E+00  0.1067E+00
     -3.037  0.0000E+00  0.1067E+00
     -2.855  0.0000E+00  0.1067E+00
     -2.672  0.2804E-02  0.1067E+00
     -2.490  0.3990E-01  0.1112E+00
     -2.307  0.3815E-01  0.1216E+00
     -2.124  0.6807E-01  0.1337E+00
     -1.942  0.0000E+00  0.1467E+00
     -1.759  0.0000E+00  0.1467E+00
     -1.577  0.0000E+00  0.1467E+00
     -1.394  0.0000E+00  0.1467E+00
     -1.211  0.0000E+00  0.1467E+00
     -1.029  0.0000E+00  0.1467E+00
     -0.846  0.0000E+00  0.1467E+00
     -0.664  0.0000E+00  0.1467E+00
     -0.481  0.0000E+00  0.1467E+00
     -0.298  0.0000E+00  0.1467E+00
     -0.116  0.5367E-01  0.1552E+00
      0.067  0.4891E-01  0.1651E+00
      0.249  0.1920E-01  0.1719E+00
      0.432  0.3068E-01  0.1763E+00
      0.614  0.4349E-01  0.1832E+00
      0.797  0.5107E-02  0.1867E+00
      0.980  0.1178E+00  0.1953E+00
      1.162  0.3559E-01  0.2042E+00
      1.345  0.2969E-01  0.2120E+00
      1.527  0.4399E-01  0.2157E+00
      1.710  0.2414E-01  0.2264E+00
      1.893  0.9374E-01  0.2364E+00
      2.075  0.7188E-01  0.2481E+00
      2.258  0.0000E+00  0.2533E+00
      2.440  0.0000E+00  0.2533E+00
      2.623  0.0000E+00  0.2533E+00
      2.806  0.0000E+00  0.2533E+00
      2.988  0.0000E+00  0.2533E+00
      3.171  0.0000E+00  0.2533E+00
      3.353  0.0000E+00  0.2533E+00
      3.536  0.0000E+00  0.2533E+00
      3.718  0.0000E+00  0.2533E+00
      3.901  0.0000E+00  0.2533E+00
      4.084  0.0000E+00  0.2533E+00
      4.266  0.0000E+00  0.2533E+00
      4.449  0.0000E+00  0.2533E+00
      4.631  0.0000E+00  0.2533E+00
      4.814  0.0000E+00  0.2533E+00
      4.997  0.0000E+00  0.2533E+00
      5.179  0.9441E-02  0.2545E+00
      5.362  0.1981E-01  0.2567E+00
      5.544  0.1608E-01  0.2600E+00
      5.727  0.1556E-01  0.2631E+00
      5.910  0.9693E-02  0.2654E+00
      6.092  0.3833E-02  0.2668E+00
      6.275  0.6724E-02  0.2676E+00
      6.457  0.5057E-01  0.2720E+00
      6.640  0.3926E-02  0.2802E+00
      6.822  0.4338E-01  0.2861E+00
      7.005  0.1779E-01  0.2939E+00
      7.188  0.6133E-01  0.3021E+00
      7.370  0.0000E+00  0.3067E+00
      7.553  0.0000E+00  0.3067E+00
      7.735  0.0000E+00  0.3067E+00
      7.918  0.0000E+00  0.3067E+00
      8.101  0.9195E-02  0.3068E+00
      8.283  0.1808E-01  0.3128E+00
      8.466  0.3157E-02  0.3134E+00
      8.648  0.6642E-02  0.3198E+00
      8.831  0.0000E+00  0.3200E+00
      9.014  0.0000E+00  0.3200E+00
      9.196  0.0000E+00  0.3200E+00
      9.379  0.0000E+00  0.3200E+00
      9.561  0.0000E+00  0.3200E+00
      9.744  0.0000E+00  0.3200E+00
      9.927  0.0000E+00  0.3200E+00
     10.109  0.0000E+00  0.3200E+00
     10.292  0.0000E+00  0.3200E+00
     10.474  0.0000E+00  0.3200E+00
     10.657  0.0000E+00  0.3200E+00
     10.839  0.0000E+00  0.3200E+00
     11.022  0.0000E+00  0.3200E+00
     11.205  0.0000E+00  0.3200E+00
