Automatically generated mesh
      10
Reciprocal lattice
    0.00000000000000    0.00000000000000    0.00000000000000             1
    0.33333333333333    0.00000000000000    0.00000000000000             2
    0.00000000000000    0.33333333333333    0.00000000000000             2
    0.33333333333333    0.33333333333333    0.00000000000000             4
    0.00000000000000    0.00000000000000    0.33333333333333             2
    0.33333333333333    0.00000000000000    0.33333333333333             2
   -0.33333333333333    0.00000000000000    0.33333333333333             2
    0.00000000000000    0.33333333333333    0.33333333333333             4
    0.33333333333333    0.33333333333333    0.33333333333333             4
   -0.33333333333333    0.33333333333333    0.33333333333333             4
Tetrahedra
        75    0.00617283950617
         2         1         2         4         5
         2         1         3         4         5
         2         3         4         5         8
         2         2         4         5         6
         2         4         5         6         9
         2         4         5         8         9
         2         2         2         4         6
         2         2         4         4         6
         2         4         4         6         9
         2         2         4         6         7
         2         4         6         7        10
         2         4         6         9        10
         2         1         2         3         7
         2         2         3         4         7
         2         3         4         7        10
         2         1         3         5         7
         2         3         5         7         8
         2         3         7         8        10
         2         3         4         4         8
         2         3         3         4         8
         2         3         4         8         8
         2         4         4         8         9
         2         4         8         9         9
         2         4         8         8         9
         4         4         4         4         9
         2         4         4         9         9
         2         4         4         9        10
         2         4         9        10        10
         2         4         9         9        10
         2         3         3         4        10
         2         3         4         4        10
         2         3         4        10        10
         2         3         3         8        10
         2         3         8         8        10
         2         3         8        10        10
         2         2         3         4         8
         2         1         2         3         8
         2         1         2         5         8
         2         2         4         8         9
         2         2         6         8         9
         2         2         5         6         8
         2         2         4         4         9
         2         2         2         4         9
         2         2         2         6         9
         2         2         4         9        10
         2         2         7         9        10
         2         2         6         7         9
         2         1         3         4        10
         2         1         2         4        10
         2         1         2         7        10
         2         1         3         8        10
         2         1         5         8        10
         2         1         5         7        10
         2         5         5         6         9
         2         5         5         8         9
         2         5         8         8         9
         2         5         6         7         9
         2         5         7         9        10
         2         5         8         9        10
         4         6         7         7        10
         4         6         7         9        10
         4         7         9        10        10
         2         5         6         7         8
         2         6         7         8        10
         2         6         8         9        10
         2         5         5         6         8
         2         5         6         8         8
         2         6         8         8         9
         2         8         8         9         9
         4         8         8         8         9
         2         8         9         9        10
         2         8         9        10        10
         2         8         8         9        10
         4         9        10        10        10
         2         9         9        10        10
