       N       E                     dE             d eps       ncg     rms          rms(c)
DAV:   1     0.509328853989E+03    0.50933E+03   -0.28513E+04   960   0.130E+03
DAV:   2    -0.241784304741E+01   -0.51175E+03   -0.48660E+03  1136   0.310E+02
DAV:   3    -0.662890666918E+02   -0.63871E+02   -0.63251E+02  1352   0.977E+01
DAV:   4    -0.737055664310E+02   -0.74165E+01   -0.73676E+01  1800   0.319E+01
DAV:   5    -0.745310248310E+02   -0.82546E+00   -0.82524E+00  1440   0.743E+00    0.243E+01
RMM:   6    -0.720059370618E+02    0.25251E+01   -0.88747E+00   973   0.652E+00    0.162E+01
RMM:   7    -0.715183103388E+02    0.48763E+00   -0.28415E+00  1058   0.418E+00    0.507E+00
RMM:   8    -0.714396804400E+02    0.78630E-01   -0.29929E-01  1174   0.166E+00    0.567E-01
RMM:   9    -0.714336299182E+02    0.60505E-02   -0.44789E-02  1286   0.637E-01    0.261E-01
RMM:  10    -0.714342437228E+02   -0.61380E-03   -0.10917E-02  1466   0.293E-01    0.134E-01
RMM:  11    -0.714347701433E+02   -0.52642E-03   -0.53023E-03  1382   0.181E-01    0.339E-02
RMM:  12    -0.714350111034E+02   -0.24096E-03   -0.26774E-03  1336   0.131E-01    0.225E-02
RMM:  13    -0.714351481936E+02   -0.13709E-03   -0.14748E-03  1069   0.974E-02    0.173E-02
RMM:  14    -0.714352283642E+02   -0.80171E-04   -0.85143E-04  1193   0.786E-02    0.168E-02
RMM:  15    -0.714352690318E+02   -0.40668E-04   -0.42164E-04   899   0.621E-02    0.235E-02
RMM:  16    -0.714352841579E+02   -0.15126E-04   -0.22532E-04   922   0.544E-02    0.676E-03
RMM:  17    -0.714352982786E+02   -0.14121E-04   -0.18205E-04  1009   0.499E-02
   1 F= -.71435298E+02 E0= -.71435298E+02  d E =-.714353E+02
       N       E                     dE             d eps       ncg     rms          rms(c)
DAV:   1    -0.728967028360E+02   -0.14614E+01   -0.35349E+02   960   0.844E+01    0.257E+01
RMM:   2    -0.739013029819E+02   -0.10046E+01   -0.27088E+01  1205   0.202E+01    0.767E+00
RMM:   3    -0.735953763266E+02    0.30593E+00   -0.50961E+00  1390   0.668E+00    0.675E+00
RMM:   4    -0.735430441861E+02    0.52332E-01   -0.15003E+00  1287   0.352E+00    0.240E+00
RMM:   5    -0.735605646686E+02   -0.17520E-01   -0.34590E-01  1520   0.184E+00    0.721E-01
RMM:   6    -0.735637581961E+02   -0.31935E-02   -0.84289E-02  1551   0.106E+00    0.203E-01
RMM:   7    -0.735664236016E+02   -0.26654E-02   -0.36290E-02  1606   0.729E-01    0.185E-01
RMM:   8    -0.735684973708E+02   -0.20738E-02   -0.22140E-02  1587   0.536E-01    0.638E-02
RMM:   9    -0.735697429249E+02   -0.12456E-02   -0.12917E-02  1551   0.401E-01    0.252E-02
RMM:  10    -0.735704844198E+02   -0.74149E-03   -0.74908E-03  1531   0.307E-01    0.287E-02
RMM:  11    -0.735709810143E+02   -0.49659E-03   -0.50339E-03  1497   0.244E-01    0.387E-02
RMM:  12    -0.735712592032E+02   -0.27819E-03   -0.29524E-03  1483   0.194E-01    0.326E-02
RMM:  13    -0.735714573759E+02   -0.19817E-03   -0.20995E-03  1421   0.158E-01    0.340E-02
RMM:  14    -0.735715639197E+02   -0.10654E-03   -0.11824E-03  1359   0.129E-01    0.271E-02
RMM:  15    -0.735716500432E+02   -0.86124E-04   -0.93792E-04  1325   0.109E-01    0.248E-02
RMM:  16    -0.735716979238E+02   -0.47881E-04   -0.49382E-04  1155   0.906E-02    0.316E-02
RMM:  17    -0.735717271427E+02   -0.29219E-04   -0.34800E-04  1075   0.798E-02    0.299E-02
RMM:  18    -0.735717435110E+02   -0.16368E-04   -0.20898E-04  1044   0.723E-02    0.298E-02
RMM:  19    -0.735717519195E+02   -0.84085E-05   -0.12993E-04   933   0.673E-02
   2 F= -.73571752E+02 E0= -.73571752E+02  d E =-.213645E+01
       N       E                     dE             d eps       ncg     rms          rms(c)
DAV:   1    -0.735751823042E+02   -0.34388E-02   -0.45614E-01  1216   0.294E+00    0.505E-01
RMM:   2    -0.735748819379E+02    0.30037E-03   -0.24702E-02  1234   0.621E-01    0.144E-01
RMM:   3    -0.735742579595E+02    0.62398E-03   -0.29881E-03  1343   0.204E-01    0.104E-01
RMM:   4    -0.735742446849E+02    0.13275E-04   -0.68090E-04  1417   0.858E-02    0.794E-02
RMM:   5    -0.735742439455E+02    0.73943E-06   -0.16867E-04  1185   0.505E-02
   3 F= -.73574244E+02 E0= -.73574244E+02  d E =-.213895E+01
       N       E                     dE             d eps       ncg     rms          rms(c)
DAV:   1    -0.741653538262E+02   -0.59111E+00   -0.19022E+02   960   0.617E+01    0.173E+01
RMM:   2    -0.744966520510E+02   -0.33130E+00   -0.15534E+01  1235   0.156E+01    0.651E+00
RMM:   3    -0.743045446108E+02    0.19211E+00   -0.24404E+00  1488   0.532E+00    0.594E+00
RMM:   4    -0.742038634045E+02    0.10068E+00   -0.50536E-01  1267   0.253E+00    0.188E+00
RMM:   5    -0.742073263310E+02   -0.34629E-02   -0.19514E-01  1495   0.150E+00    0.578E-01
RMM:   6    -0.742085213066E+02   -0.11950E-02   -0.66419E-02  1511   0.900E-01    0.226E-01
RMM:   7    -0.742102287528E+02   -0.17074E-02   -0.27526E-02  1560   0.625E-01    0.152E-01
RMM:   8    -0.742120078939E+02   -0.17791E-02   -0.19023E-02  1518   0.470E-01    0.384E-02
RMM:   9    -0.742130292056E+02   -0.10213E-02   -0.10343E-02  1459   0.355E-01    0.186E-02
RMM:  10    -0.742136450083E+02   -0.61580E-03   -0.63109E-03  1462   0.279E-01    0.172E-02
RMM:  11    -0.742140452434E+02   -0.40024E-03   -0.41250E-03  1438   0.224E-01    0.197E-02
RMM:  12    -0.742143181882E+02   -0.27294E-03   -0.26369E-03  1439   0.181E-01    0.454E-02
RMM:  13    -0.742144329635E+02   -0.11478E-03   -0.15088E-03  1456   0.148E-01    0.162E-02
RMM:  14    -0.742145451976E+02   -0.11223E-03   -0.12153E-03  1322   0.122E-01    0.793E-03
RMM:  15    -0.742146049014E+02   -0.59704E-04   -0.62728E-04  1323   0.985E-02    0.462E-03
RMM:  16    -0.742146438630E+02   -0.38962E-04   -0.41435E-04  1116   0.831E-02    0.414E-03
RMM:  17    -0.742146611738E+02   -0.17311E-04   -0.20215E-04   996   0.727E-02    0.383E-03
RMM:  18    -0.742146740195E+02   -0.12846E-04   -0.16688E-04  1052   0.676E-02
   4 F= -.74214674E+02 E0= -.74214674E+02  d E =-.640430E+00
       N       E                     dE             d eps       ncg     rms          rms(c)
DAV:   1    -0.743378266042E+02   -0.12317E+00   -0.16395E+01   960   0.179E+01    0.394E+00
RMM:   2    -0.743311052992E+02    0.67213E-02   -0.10659E+00  1202   0.416E+00    0.117E+00
RMM:   3    -0.743045944365E+02    0.26511E-01   -0.12106E-01  1386   0.132E+00    0.669E-01
RMM:   4    -0.743019642287E+02    0.26302E-02   -0.34847E-02  1438   0.600E-01    0.360E-01
RMM:   5    -0.743018570437E+02    0.10718E-03   -0.87149E-03  1543   0.345E-01    0.141E-01
RMM:   6    -0.743022489351E+02   -0.39189E-03   -0.47497E-03  1510   0.221E-01    0.616E-02
RMM:   7    -0.743024609161E+02   -0.21198E-03   -0.21917E-03  1447   0.157E-01    0.223E-02
RMM:   8    -0.743025709960E+02   -0.11008E-03   -0.11175E-03  1317   0.116E-01    0.929E-03
RMM:   9    -0.743026317349E+02   -0.60739E-04   -0.64786E-04  1311   0.922E-02    0.381E-03
RMM:  10    -0.743026644451E+02   -0.32710E-04   -0.34724E-04  1133   0.741E-02    0.360E-03
RMM:  11    -0.743026785953E+02   -0.14150E-04   -0.16970E-04  1005   0.638E-02
   5 F= -.74302679E+02 E0= -.74302679E+02  d E =-.728435E+00
       N       E                     dE             d eps       ncg     rms          rms(c)
DAV:   1    -0.745149430609E+02   -0.21228E+00   -0.63226E+01   960   0.361E+01    0.514E+00
RMM:   2    -0.747582659598E+02   -0.24332E+00   -0.32493E+00  1197   0.766E+00    0.149E+00
RMM:   3    -0.747482626752E+02    0.10003E-01   -0.42515E-01  1544   0.248E+00    0.154E+00
RMM:   4    -0.747364999911E+02    0.11763E-01   -0.14206E-01  1389   0.122E+00    0.412E-01
RMM:   5    -0.747389635923E+02   -0.24636E-02   -0.41302E-02  1547   0.711E-01    0.177E-01
RMM:   6    -0.747401956806E+02   -0.12321E-02   -0.29517E-02  1485   0.533E-01    0.871E-02
RMM:   7    -0.747405699453E+02   -0.37426E-03   -0.10530E-02  1500   0.356E-01    0.263E-02
RMM:   8    -0.747413601638E+02   -0.79022E-03   -0.84238E-03  1403   0.273E-01    0.151E-02
RMM:   9    -0.747417257674E+02   -0.36560E-03   -0.35835E-03  1379   0.197E-01    0.123E-02
RMM:  10    -0.747419235948E+02   -0.19783E-03   -0.20580E-03  1360   0.152E-01    0.667E-03
RMM:  11    -0.747420513072E+02   -0.12771E-03   -0.13380E-03  1322   0.122E-01    0.499E-03
RMM:  12    -0.747421226402E+02   -0.71333E-04   -0.74504E-04  1211   0.966E-02    0.235E-03
RMM:  13    -0.747421694887E+02   -0.46849E-04   -0.50176E-04  1145   0.812E-02    0.160E-03
RMM:  14    -0.747421916860E+02   -0.22197E-04   -0.24740E-04  1007   0.686E-02    0.172E-03
RMM:  15    -0.747422049536E+02   -0.13268E-04   -0.16448E-04   954   0.622E-02
   6 F= -.74742205E+02 E0= -.74742205E+02  d E =-.439526E+00
       N       E                     dE             d eps       ncg     rms          rms(c)
DAV:   1    -0.734881515435E+02    0.12540E+01   -0.33792E+02   960   0.840E+01    0.209E+01
RMM:   2    -0.750837813576E+02   -0.15956E+01   -0.21013E+01  1191   0.190E+01    0.555E+00
RMM:   3    -0.751792085705E+02   -0.95427E-01   -0.37899E+00  1539   0.665E+00    0.638E+00
RMM:   4    -0.751272744189E+02    0.51934E-01   -0.88805E-01  1424   0.320E+00    0.236E+00
RMM:   5    -0.751387848958E+02   -0.11510E-01   -0.26278E-01  1556   0.181E+00    0.489E-01
RMM:   6    -0.751417782564E+02   -0.29934E-02   -0.11275E-01  1551   0.119E+00    0.143E-01
RMM:   7    -0.751465629706E+02   -0.47847E-02   -0.57201E-02  1536   0.798E-01    0.707E-02
RMM:   8    -0.751497797348E+02   -0.32168E-02   -0.33767E-02  1622   0.588E-01    0.412E-02
RMM:   9    -0.751512284262E+02   -0.14487E-02   -0.14701E-02  1540   0.415E-01    0.265E-02
RMM:  10    -0.751522539784E+02   -0.10256E-02   -0.10820E-02  1508   0.326E-01    0.125E-02
RMM:  11    -0.751527459522E+02   -0.49197E-03   -0.50253E-03  1492   0.243E-01    0.108E-02
RMM:  12    -0.751530794179E+02   -0.33347E-03   -0.35026E-03  1462   0.193E-01    0.411E-03
RMM:  13    -0.751532669276E+02   -0.18751E-03   -0.19394E-03  1418   0.151E-01    0.555E-03
RMM:  14    -0.751533811728E+02   -0.11425E-03   -0.12018E-03  1320   0.120E-01    0.260E-03
RMM:  15    -0.751534509649E+02   -0.69792E-04   -0.73848E-04  1249   0.980E-02    0.344E-03
RMM:  16    -0.751534913462E+02   -0.40381E-04   -0.43309E-04  1151   0.812E-02    0.587E-03
RMM:  17    -0.751535110752E+02   -0.19729E-04   -0.22580E-04  1022   0.705E-02    0.816E-03
RMM:  18    -0.751535208434E+02   -0.97682E-05   -0.13271E-04   921   0.647E-02
   7 F= -.75153521E+02 E0= -.75153521E+02  d E =-.850842E+00
       N       E                     dE             d eps       ncg     rms          rms(c)
DAV:   1    -0.751161556294E+02    0.37355E-01   -0.98508E+01   960   0.450E+01    0.977E+00
RMM:   2    -0.755094441094E+02   -0.39329E+00   -0.61664E+00  1190   0.103E+01    0.265E+00
RMM:   3    -0.754490463089E+02    0.60398E-01   -0.64524E-01  1515   0.313E+00    0.298E+00
RMM:   4    -0.754256955205E+02    0.23351E-01   -0.20080E-01  1409   0.149E+00    0.122E+00
RMM:   5    -0.754292398163E+02   -0.35443E-02   -0.90134E-02  1473   0.976E-01    0.225E-01
RMM:   6    -0.754310264938E+02   -0.17867E-02   -0.37670E-02  1555   0.656E-01    0.916E-02
RMM:   7    -0.754329848405E+02   -0.19583E-02   -0.22271E-02  1515   0.469E-01    0.403E-02
RMM:   8    -0.754342118576E+02   -0.12270E-02   -0.12778E-02  1465   0.355E-01    0.239E-02
RMM:   9    -0.754348816210E+02   -0.66976E-03   -0.71767E-03  1412   0.269E-01    0.115E-02
RMM:  10    -0.754353565917E+02   -0.47497E-03   -0.50028E-03  1393   0.213E-01    0.739E-03
RMM:  11    -0.754355928089E+02   -0.23622E-03   -0.24782E-03  1341   0.162E-01    0.390E-03
RMM:  12    -0.754357589068E+02   -0.16610E-03   -0.17554E-03  1328   0.129E-01    0.455E-03
RMM:  13    -0.754358499546E+02   -0.91048E-04   -0.95944E-04  1219   0.101E-01    0.511E-03
RMM:  14    -0.754359034766E+02   -0.53522E-04   -0.57405E-04  1096   0.823E-02    0.658E-03
RMM:  15    -0.754359323705E+02   -0.28894E-04   -0.32338E-04   998   0.698E-02    0.725E-03
RMM:  16    -0.754359470633E+02   -0.14693E-04   -0.17755E-04   891   0.620E-02
   8 F= -.75435947E+02 E0= -.75435947E+02  d E =-.282426E+00
       N       E                     dE             d eps       ncg     rms          rms(c)
DAV:   1    -0.754361317611E+02   -0.19939E-03   -0.32551E-01  1232   0.257E+00    0.439E-01
RMM:   2    -0.754372812111E+02   -0.11494E-02   -0.17761E-02  1203   0.545E-01    0.106E-01
RMM:   3    -0.754369904110E+02    0.29080E-03   -0.15735E-03  1476   0.162E-01    0.839E-02
RMM:   4    -0.754369305721E+02    0.59839E-04   -0.57241E-04  1213   0.753E-02    0.304E-02
RMM:   5    -0.754369250325E+02    0.55396E-05   -0.38226E-05   730   0.452E-02
   9 F= -.75436925E+02 E0= -.75436925E+02  d E =-.283404E+00
       N       E                     dE             d eps       ncg     rms          rms(c)
DAV:   1    -0.757769347337E+02   -0.34000E+00   -0.60018E+01   960   0.364E+01    0.566E+00
RMM:   2    -0.757886569325E+02   -0.11722E-01   -0.28572E+00  1200   0.729E+00    0.151E+00
RMM:   3    -0.757443737065E+02    0.44283E-01   -0.35012E-01  1462   0.224E+00    0.143E+00
RMM:   4    -0.757383341266E+02    0.60396E-02   -0.89813E-02  1519   0.971E-01    0.814E-01
RMM:   5    -0.757392336289E+02   -0.89950E-03   -0.35698E-02  1508   0.625E-01    0.230E-01
RMM:   6    -0.757406225951E+02   -0.13890E-02   -0.17921E-02  1579   0.433E-01    0.616E-02
RMM:   7    -0.757415764251E+02   -0.95383E-03   -0.10102E-02  1498   0.304E-01    0.402E-02
RMM:   8    -0.757420235397E+02   -0.44711E-03   -0.46560E-03  1422   0.219E-01    0.165E-02
RMM:   9    -0.757422904222E+02   -0.26688E-03   -0.28710E-03  1404   0.168E-01    0.100E-02
RMM:  10    -0.757424449872E+02   -0.15457E-03   -0.16510E-03  1324   0.130E-01    0.493E-03
RMM:  11    -0.757425353581E+02   -0.90371E-04   -0.96494E-04  1312   0.102E-01    0.338E-03
RMM:  12    -0.757425824471E+02   -0.47089E-04   -0.50681E-04  1082   0.807E-02    0.273E-03
RMM:  13    -0.757426072456E+02   -0.24799E-04   -0.28706E-04  1020   0.686E-02    0.239E-03
RMM:  14    -0.757426176772E+02   -0.10432E-04   -0.13890E-04   917   0.610E-02
  10 F= -.75742618E+02 E0= -.75742618E+02  d E =-.305693E+00
       N       E                     dE             d eps       ncg     rms          rms(c)
DAV:   1    -0.759552314814E+02   -0.21262E+00   -0.13136E+02   960   0.547E+01    0.958E+00
RMM:   2    -0.759905796176E+02   -0.35348E-01   -0.65034E+00  1197   0.109E+01    0.234E+00
RMM:   3    -0.759057882960E+02    0.84791E-01   -0.84943E-01  1476   0.343E+00    0.247E+00
RMM:   4    -0.758931563002E+02    0.12632E-01   -0.22652E-01  1524   0.158E+00    0.132E+00
RMM:   5    -0.758951760468E+02   -0.20197E-02   -0.81474E-02  1512   0.964E-01    0.359E-01
RMM:   6    -0.758982586447E+02   -0.30826E-02   -0.40756E-02  1582   0.659E-01    0.859E-02
RMM:   7    -0.759003079654E+02   -0.20493E-02   -0.22048E-02  1543   0.450E-01    0.581E-02
RMM:   8    -0.759012665919E+02   -0.95863E-03   -0.10133E-02  1527   0.319E-01    0.281E-02
RMM:   9    -0.759018113815E+02   -0.54479E-03   -0.59330E-03  1470   0.237E-01    0.141E-02
RMM:  10    -0.759021324847E+02   -0.32110E-03   -0.34625E-03  1427   0.181E-01    0.728E-03
RMM:  11    -0.759023123803E+02   -0.17990E-03   -0.19271E-03  1376   0.136E-01    0.375E-03
RMM:  12    -0.759024127244E+02   -0.10034E-03   -0.10741E-03  1244   0.105E-01    0.377E-03
RMM:  13    -0.759024676560E+02   -0.54932E-04   -0.60361E-04  1136   0.838E-02    0.341E-03
RMM:  14    -0.759024942582E+02   -0.26602E-04   -0.30595E-04   983   0.701E-02    0.439E-03
RMM:  15    -0.759025078418E+02   -0.13584E-04   -0.17417E-04   938   0.626E-02
  11 F= -.75902508E+02 E0= -.75902508E+02  d E =-.465583E+00
       N       E                     dE             d eps       ncg     rms          rms(c)
DAV:   1    -0.760036887416E+02   -0.10119E+00   -0.14028E+02   960   0.597E+01    0.686E+00
RMM:   2    -0.762023844630E+02   -0.19870E+00   -0.56354E+00  1219   0.102E+01    0.200E+00
RMM:   3    -0.761722662026E+02    0.30118E-01   -0.10260E+00  1512   0.360E+00    0.147E+00
RMM:   4    -0.761641675592E+02    0.80986E-02   -0.28719E-01  1520   0.180E+00    0.695E-01
RMM:   5    -0.761677624367E+02   -0.35949E-02   -0.82606E-02  1547   0.103E+00    0.341E-01
RMM:   6    -0.761711682558E+02   -0.34058E-02   -0.42468E-02  1594   0.701E-01    0.591E-02
RMM:   7    -0.761729080995E+02   -0.17398E-02   -0.19913E-02  1556   0.464E-01    0.529E-02
RMM:   8    -0.761739705752E+02   -0.10625E-02   -0.11603E-02  1626   0.334E-01    0.292E-02
RMM:   9    -0.761744776132E+02   -0.50704E-03   -0.55350E-03  1502   0.235E-01    0.119E-02
RMM:  10    -0.761747712030E+02   -0.29359E-03   -0.31928E-03  1412   0.172E-01    0.133E-02
RMM:  11    -0.761749271535E+02   -0.15595E-03   -0.17027E-03  1412   0.129E-01    0.750E-03
RMM:  12    -0.761750097010E+02   -0.82548E-04   -0.90310E-04  1302   0.974E-02    0.318E-03
RMM:  13    -0.761750506510E+02   -0.40950E-04   -0.44914E-04  1085   0.760E-02    0.469E-03
RMM:  14    -0.761750664491E+02   -0.15798E-04   -0.19859E-04   964   0.639E-02
  12 F= -.76175066E+02 E0= -.76175066E+02  d E =-.272559E+00
       N       E                     dE             d eps       ncg     rms          rms(c)
DAV:   1    -0.761718126586E+02    0.32380E-02   -0.44629E+01   960   0.339E+01    0.340E+00
RMM:   2    -0.762193327488E+02   -0.47520E-01   -0.15568E+00  1239   0.562E+00    0.114E+00
RMM:   3    -0.762068026733E+02    0.12530E-01   -0.25322E-01  1517   0.191E+00    0.746E-01
RMM:   4    -0.762037474540E+02    0.30552E-02   -0.84797E-02  1547   0.929E-01    0.347E-01
RMM:   5    -0.762054419387E+02   -0.16945E-02   -0.30326E-02  1596   0.569E-01    0.182E-01
RMM:   6    -0.762066771370E+02   -0.12352E-02   -0.14970E-02  1603   0.389E-01    0.359E-02
RMM:   7    -0.762072792088E+02   -0.60207E-03   -0.70798E-03  1537   0.268E-01    0.351E-02
RMM:   8    -0.762076325760E+02   -0.35337E-03   -0.39820E-03  1483   0.194E-01    0.196E-02
RMM:   9    -0.762078089331E+02   -0.17636E-03   -0.19281E-03  1457   0.140E-01    0.842E-03
RMM:  10    -0.762078975532E+02   -0.88620E-04   -0.99096E-04  1380   0.102E-01    0.481E-03
RMM:  11    -0.762079426860E+02   -0.45133E-04   -0.50420E-04  1175   0.783E-02    0.342E-03
RMM:  12    -0.762079586654E+02   -0.15979E-04   -0.19585E-04   952   0.634E-02
  13 F= -.76207959E+02 E0= -.76207959E+02  d E =-.305451E+00
       N       E                     dE             d eps       ncg     rms          rms(c)
DAV:   1    -0.761685777610E+02    0.39365E-01   -0.59890E+01   960   0.393E+01    0.269E+00
RMM:   2    -0.763619593526E+02   -0.19338E+00   -0.22476E+00  1243   0.656E+00    0.950E-01
RMM:   3    -0.763844300391E+02   -0.22471E-01   -0.41069E-01  1582   0.235E+00    0.970E-01
RMM:   4    -0.763845388025E+02   -0.10876E-03   -0.11140E-01  1563   0.113E+00    0.485E-01
RMM:   5    -0.763870035888E+02   -0.24648E-02   -0.44438E-02  1544   0.697E-01    0.130E-01
RMM:   6    -0.763885485134E+02   -0.15449E-02   -0.20738E-02  1606   0.470E-01    0.423E-02
RMM:   7    -0.763895987808E+02   -0.10503E-02   -0.11423E-02  1556   0.317E-01    0.392E-02
RMM:   8    -0.763900514452E+02   -0.45266E-03   -0.48088E-03  1531   0.214E-01    0.370E-02
RMM:   9    -0.763902552917E+02   -0.20385E-03   -0.23651E-03  1450   0.150E-01    0.218E-02
RMM:  10    -0.763903707116E+02   -0.11542E-03   -0.13132E-03  1396   0.112E-01    0.954E-03
RMM:  11    -0.763904250215E+02   -0.54310E-04   -0.60310E-04  1159   0.816E-02    0.384E-03
RMM:  12    -0.763904522111E+02   -0.27190E-04   -0.31865E-04  1008   0.662E-02    0.476E-03
RMM:  13    -0.763904602132E+02   -0.80021E-05   -0.11935E-04   886   0.571E-02
  14 F= -.76390460E+02 E0= -.76390460E+02  d E =-.182502E+00
       N       E                     dE             d eps       ncg     rms          rms(c)
DAV:   1    -0.755214422199E+02    0.86901E+00   -0.19792E+02   960   0.717E+01    0.621E+00
RMM:   2    -0.763286179485E+02   -0.80718E+00   -0.93412E+00  1228   0.127E+01    0.203E+00
RMM:   3    -0.764687964232E+02   -0.14018E+00   -0.22417E+00  1584   0.484E+00    0.224E+00
RMM:   4    -0.764803334567E+02   -0.11537E-01   -0.49571E-01  1572   0.233E+00    0.127E+00
RMM:   5    -0.764842558640E+02   -0.39224E-02   -0.14588E-01  1531   0.134E+00    0.331E-01
RMM:   6    -0.764897108838E+02   -0.54550E-02   -0.68089E-02  1614   0.863E-01    0.127E-01
RMM:   7    -0.764922144408E+02   -0.25036E-02   -0.28849E-02  1570   0.536E-01    0.691E-02
RMM:   8    -0.764933736875E+02   -0.11592E-02   -0.12780E-02  1650   0.360E-01    0.626E-02
RMM:   9    -0.764939281656E+02   -0.55448E-03   -0.62121E-03  1541   0.248E-01    0.699E-02
RMM:  10    -0.764941379108E+02   -0.20975E-03   -0.33915E-03  1481   0.174E-01    0.145E-02
RMM:  11    -0.764943093412E+02   -0.17143E-03   -0.19168E-03  1349   0.124E-01    0.104E-02
RMM:  12    -0.764943826209E+02   -0.73280E-04   -0.79941E-04  1234   0.888E-02    0.947E-03
RMM:  13    -0.764944085590E+02   -0.25938E-04   -0.30442E-04   969   0.677E-02    0.837E-03
RMM:  14    -0.764944194498E+02   -0.10891E-04   -0.15591E-04   890   0.596E-02
  15 F= -.76494419E+02 E0= -.76494419E+02  d E =-.286461E+00
       N       E                     dE             d eps       ncg     rms          rms(c)
DAV:   1    -0.765746737765E+02   -0.80265E-01   -0.30753E+01   960   0.269E+01    0.208E+00
RMM:   2    -0.766473013030E+02   -0.72628E-01   -0.12100E+00  1248   0.474E+00    0.991E-01
RMM:   3    -0.766559943889E+02   -0.86931E-02   -0.25381E-01  1554   0.180E+00    0.751E-01
RMM:   4    -0.766554000138E+02    0.59438E-03   -0.71469E-02  1516   0.898E-01    0.294E-01
RMM:   5    -0.766571548149E+02   -0.17548E-02   -0.28108E-02  1605   0.544E-01    0.126E-01
RMM:   6    -0.766581710980E+02   -0.10163E-02   -0.12930E-02  1582   0.350E-01    0.562E-02
RMM:   7    -0.766586546371E+02   -0.48354E-03   -0.61255E-03  1505   0.237E-01    0.370E-02
RMM:   8    -0.766589402495E+02   -0.28561E-03   -0.32073E-03  1460   0.166E-01    0.118E-02
RMM:   9    -0.766590841478E+02   -0.14390E-03   -0.15790E-03  1388   0.115E-01    0.996E-03
RMM:  10    -0.766591474278E+02   -0.63280E-04   -0.69027E-04  1118   0.813E-02    0.113E-02
RMM:  11    -0.766591790527E+02   -0.31625E-04   -0.33674E-04  1022   0.645E-02    0.188E-02
RMM:  12    -0.766591815839E+02   -0.25312E-05   -0.11666E-04   858   0.550E-02
  16 F= -.76659182E+02 E0= -.76659182E+02  d E =-.164762E+00
       N       E                     dE             d eps       ncg     rms          rms(c)
DAV:   1    -0.764593253878E+02    0.19985E+00   -0.87030E+01   960   0.451E+01    0.371E+00
RMM:   2    -0.767118872776E+02   -0.25256E+00   -0.39473E+00  1241   0.822E+00    0.179E+00
RMM:   3    -0.767573974947E+02   -0.45510E-01   -0.99273E-01  1556   0.324E+00    0.147E+00
RMM:   4    -0.767558562493E+02    0.15412E-02   -0.22833E-01  1503   0.159E+00    0.604E-01
RMM:   5    -0.767599193582E+02   -0.40631E-02   -0.80160E-02  1571   0.938E-01    0.206E-01
RMM:   6    -0.767626203459E+02   -0.27010E-02   -0.36136E-02  1593   0.589E-01    0.105E-01
RMM:   7    -0.767639220166E+02   -0.13017E-02   -0.16378E-02  1543   0.382E-01    0.631E-02
RMM:   8    -0.767646460753E+02   -0.72406E-03   -0.80236E-03  1502   0.258E-01    0.234E-02
RMM:   9    -0.767649662630E+02   -0.32019E-03   -0.36345E-03  1450   0.173E-01    0.120E-02
RMM:  10    -0.767651336347E+02   -0.16737E-03   -0.18342E-03  1385   0.120E-01    0.118E-02
RMM:  11    -0.767651983252E+02   -0.64691E-04   -0.71854E-04  1119   0.833E-02    0.104E-02
RMM:  12    -0.767652294576E+02   -0.31132E-04   -0.37368E-04  1244   0.671E-02    0.119E-02
RMM:  13    -0.767652375601E+02   -0.81025E-05   -0.11928E-04   849   0.516E-02
  17 F= -.76765238E+02 E0= -.76765238E+02  d E =-.270818E+00
       N       E                     dE             d eps       ncg     rms          rms(c)
DAV:   1    -0.768265123217E+02   -0.61283E-01   -0.22627E+01   976   0.232E+01    0.277E+00
RMM:   2    -0.768787205222E+02   -0.52208E-01   -0.90226E-01  1227   0.417E+00    0.942E-01
RMM:   3    -0.768716322635E+02    0.70883E-02   -0.12941E-01  1516   0.138E+00    0.612E-01
RMM:   4    -0.768707563721E+02    0.87589E-03   -0.45400E-02  1495   0.665E-01    0.178E-01
RMM:   5    -0.768721583301E+02   -0.14020E-02   -0.18403E-02  1611   0.398E-01    0.940E-02
RMM:   6    -0.768728325122E+02   -0.67418E-03   -0.78457E-03  1541   0.248E-01    0.421E-02
RMM:   7    -0.768730884885E+02   -0.25598E-03   -0.28805E-03  1474   0.156E-01    0.174E-02
RMM:   8    -0.768732003857E+02   -0.11190E-03   -0.12437E-03  1383   0.105E-01    0.701E-03
RMM:   9    -0.768732384083E+02   -0.38023E-04   -0.43464E-04  1131   0.720E-02    0.343E-03
RMM:  10    -0.768732466612E+02   -0.82529E-05   -0.11693E-04   855   0.569E-02
  18 F= -.76873247E+02 E0= -.76873247E+02  d E =-.108009E+00
       N       E                     dE             d eps       ncg     rms          rms(c)
DAV:   1    -0.768748824343E+02   -0.16440E-02   -0.48487E+00  1128   0.107E+01    0.120E+00
RMM:   2    -0.768860450974E+02   -0.11163E-01   -0.19060E-01  1235   0.192E+00    0.462E-01
RMM:   3    -0.768846608366E+02    0.13843E-02   -0.27801E-02  1508   0.651E-01    0.309E-01
RMM:   4    -0.768844952784E+02    0.16556E-03   -0.10555E-02  1453   0.325E-01    0.791E-02
RMM:   5    -0.768848360867E+02   -0.34081E-03   -0.44047E-03  1562   0.198E-01    0.405E-02
RMM:   6    -0.768849952128E+02   -0.15913E-03   -0.18421E-03  1429   0.122E-01    0.187E-02
RMM:   7    -0.768850498359E+02   -0.54623E-04   -0.62336E-04  1276   0.796E-02    0.726E-03
RMM:   8    -0.768850592572E+02   -0.94213E-05   -0.13382E-04   876   0.572E-02
  19 F= -.76885059E+02 E0= -.76885059E+02  d E =-.119822E+00
       N       E                     dE             d eps       ncg     rms          rms(c)
DAV:   1    -0.769034709537E+02   -0.18421E-01   -0.21704E+01   960   0.229E+01    0.158E+00
RMM:   2    -0.769647402987E+02   -0.61269E-01   -0.79674E-01  1262   0.388E+00    0.684E-01
RMM:   3    -0.769711081026E+02   -0.63678E-02   -0.13146E-01  1560   0.134E+00    0.618E-01
RMM:   4    -0.769707552369E+02    0.35287E-03   -0.40891E-02  1501   0.652E-01    0.217E-01
RMM:   5    -0.769719347268E+02   -0.11795E-02   -0.15463E-02  1572   0.382E-01    0.869E-02
RMM:   6    -0.769722674757E+02   -0.33275E-03   -0.70228E-03  1530   0.251E-01    0.278E-02
RMM:   7    -0.769725124292E+02   -0.24495E-03   -0.28835E-03  1499   0.158E-01    0.167E-02
RMM:   8    -0.769726193442E+02   -0.10691E-03   -0.11747E-03  1412   0.102E-01    0.747E-03
RMM:   9    -0.769726478465E+02   -0.28502E-04   -0.34971E-04  1087   0.672E-02    0.359E-03
RMM:  10    -0.769726585046E+02   -0.10658E-04   -0.14549E-04   976   0.544E-02
  20 F= -.76972659E+02 E0= -.76972659E+02  d E =-.875992E-01
       N       E                     dE             d eps       ncg     rms          rms(c)
DAV:   1    -0.767592469634E+02    0.21340E+00   -0.74284E+01   960   0.424E+01    0.333E+00
RMM:   2    -0.769979095565E+02   -0.23866E+00   -0.30500E+00  1255   0.735E+00    0.137E+00
RMM:   3    -0.770309406489E+02   -0.33031E-01   -0.60387E-01  1564   0.265E+00    0.132E+00
RMM:   4    -0.770304516436E+02    0.48901E-03   -0.14763E-01  1513   0.128E+00    0.547E-01
RMM:   5    -0.770336172924E+02   -0.31656E-02   -0.49987E-02  1563   0.725E-01    0.157E-01
RMM:   6    -0.770347879483E+02   -0.11707E-02   -0.21278E-02  1586   0.454E-01    0.519E-02
RMM:   7    -0.770356065775E+02   -0.81863E-03   -0.91259E-03  1547   0.279E-01    0.349E-02
RMM:   8    -0.770358991511E+02   -0.29257E-03   -0.32371E-03  1542   0.171E-01    0.164E-02
RMM:   9    -0.770360076946E+02   -0.10854E-03   -0.12571E-03  1470   0.107E-01    0.730E-03
RMM:  10    -0.770360458789E+02   -0.38184E-04   -0.42372E-04  1076   0.719E-02    0.409E-03
RMM:  11    -0.770360518671E+02   -0.59882E-05   -0.93638E-05   828   0.565E-02
  21 F= -.77036052E+02 E0= -.77036052E+02  d E =-.150993E+00
       N       E                     dE             d eps       ncg     rms          rms(c)
DAV:   1    -0.770139737936E+02    0.22072E-01   -0.25534E+01   960   0.245E+01    0.213E+00
RMM:   2    -0.770817264335E+02   -0.67753E-01   -0.97321E-01  1240   0.418E+00    0.686E-01
RMM:   3    -0.770838618433E+02   -0.21354E-02   -0.14963E-01  1565   0.143E+00    0.510E-01
RMM:   4    -0.770845642190E+02   -0.70238E-03   -0.47132E-02  1525   0.670E-01    0.203E-01
RMM:   5    -0.770860610485E+02   -0.14968E-02   -0.18586E-02  1540   0.388E-01    0.106E-01
RMM:   6    -0.770865934845E+02   -0.53244E-03   -0.65932E-03  1548   0.236E-01    0.358E-02
RMM:   7    -0.770867952656E+02   -0.20178E-03   -0.24342E-03  1482   0.144E-01    0.187E-02
RMM:   8    -0.770868830300E+02   -0.87764E-04   -0.97120E-04  1352   0.923E-02    0.713E-03
RMM:   9    -0.770869011707E+02   -0.18141E-04   -0.23405E-04  1034   0.615E-02    0.315E-03
RMM:  10    -0.770869104003E+02   -0.92296E-05   -0.12833E-04   972   0.518E-02
  22 F= -.77086910E+02 E0= -.77086910E+02  d E =-.508585E-01
       N       E                     dE             d eps       ncg     rms          rms(c)
DAV:   1    -0.770818414180E+02    0.50598E-02   -0.32901E+00  1160   0.881E+00    0.719E-01
RMM:   2    -0.770901249493E+02   -0.82835E-02   -0.11852E-01  1245   0.148E+00    0.249E-01
RMM:   3    -0.770903083368E+02   -0.18339E-03   -0.17102E-02  1537   0.507E-01    0.183E-01
RMM:   4    -0.770903913500E+02   -0.83013E-04   -0.60227E-03  1498   0.240E-01    0.646E-02
RMM:   5    -0.770905982989E+02   -0.20695E-03   -0.25014E-03  1492   0.144E-01    0.347E-02
RMM:   6    -0.770906709527E+02   -0.72654E-04   -0.88738E-04  1401   0.865E-02    0.131E-02
RMM:   7    -0.770906815317E+02   -0.10579E-04   -0.16630E-04   873   0.562E-02
  23 F= -.77090682E+02 E0= -.77090682E+02  d E =-.546297E-01
       N       E                     dE             d eps       ncg     rms          rms(c)
DAV:   1    -0.770709157012E+02    0.19755E-01   -0.22040E+01   960   0.233E+01    0.188E+00
RMM:   2    -0.771268690342E+02   -0.55953E-01   -0.76817E-01  1255   0.385E+00    0.579E-01
RMM:   3    -0.771303990168E+02   -0.35300E-02   -0.13003E-01  1561   0.135E+00    0.450E-01
RMM:   4    -0.771305185091E+02   -0.11949E-03   -0.44601E-02  1516   0.667E-01    0.158E-01
RMM:   5    -0.771318990463E+02   -0.13805E-02   -0.17674E-02  1587   0.395E-01    0.775E-02
RMM:   6    -0.771324257523E+02   -0.52671E-03   -0.66490E-03  1551   0.243E-01    0.259E-02
RMM:   7    -0.771326432584E+02   -0.21751E-03   -0.25499E-03  1495   0.151E-01    0.134E-02
RMM:   8    -0.771327375126E+02   -0.94254E-04   -0.10532E-03  1406   0.977E-02    0.626E-03
RMM:   9    -0.771327603898E+02   -0.22877E-04   -0.28462E-04  1037   0.650E-02    0.248E-03
RMM:  10    -0.771327699251E+02   -0.95353E-05   -0.13676E-04   984   0.539E-02
  24 F= -.77132770E+02 E0= -.77132770E+02  d E =-.420884E-01
       N       E                     dE             d eps       ncg     rms          rms(c)
DAV:   1    -0.771175849199E+02    0.15175E-01   -0.78223E+00   960   0.139E+01    0.111E+00
RMM:   2    -0.771370138839E+02   -0.19429E-01   -0.26582E-01  1255   0.229E+00    0.342E-01
RMM:   3    -0.771379491649E+02   -0.93528E-03   -0.42968E-02  1548   0.795E-01    0.258E-01
RMM:   4    -0.771379839795E+02   -0.34815E-04   -0.16027E-02  1505   0.391E-01    0.847E-02
RMM:   5    -0.771385168716E+02   -0.53289E-03   -0.66283E-03  1571   0.236E-01    0.446E-02
RMM:   6    -0.771387130932E+02   -0.19622E-03   -0.24851E-03  1491   0.146E-01    0.155E-02
RMM:   7    -0.771387932301E+02   -0.80137E-04   -0.94210E-04  1412   0.931E-02    0.817E-03
RMM:   8    -0.771388121965E+02   -0.18966E-04   -0.23716E-04   953   0.622E-02    0.386E-03
RMM:   9    -0.771388162534E+02   -0.40568E-05   -0.84144E-05   845   0.533E-02
  25 F= -.77138816E+02 E0= -.77138816E+02  d E =-.481347E-01
       N       E                     dE             d eps       ncg     rms          rms(c)
DAV:   1    -0.771101573018E+02    0.28655E-01   -0.23146E+01   960   0.244E+01    0.117E+00
RMM:   2    -0.771639508720E+02   -0.53794E-01   -0.67656E-01  1264   0.364E+00    0.482E-01
RMM:   3    -0.771742796930E+02   -0.10329E-01   -0.14250E-01  1564   0.135E+00    0.346E-01
RMM:   4    -0.771754595330E+02   -0.11798E-02   -0.40841E-02  1582   0.664E-01    0.144E-01
RMM:   5    -0.771766272511E+02   -0.11677E-02   -0.15636E-02  1565   0.387E-01    0.610E-02
RMM:   6    -0.771770982349E+02   -0.47098E-03   -0.60674E-03  1613   0.242E-01    0.264E-02
RMM:   7    -0.771773058773E+02   -0.20764E-03   -0.24031E-03  1517   0.148E-01    0.122E-02
RMM:   8    -0.771773888845E+02   -0.83007E-04   -0.92193E-04  1368   0.935E-02    0.612E-03
RMM:   9    -0.771774074158E+02   -0.18531E-04   -0.24229E-04  1002   0.627E-02    0.335E-03
RMM:  10    -0.771774157973E+02   -0.83816E-05   -0.12395E-04   976   0.530E-02
  26 F= -.77177416E+02 E0= -.77177416E+02  d E =-.385995E-01
       N       E                     dE             d eps       ncg     rms          rms(c)
DAV:   1    -0.768204044970E+02    0.35700E+00   -0.98449E+01   960   0.505E+01    0.261E+00
RMM:   2    -0.771070537970E+02   -0.28665E+00   -0.35634E+00  1268   0.781E+00    0.107E+00
RMM:   3    -0.771924722506E+02   -0.85418E-01   -0.10107E+00  1563   0.311E+00    0.815E-01
RMM:   4    -0.772018488578E+02   -0.93766E-02   -0.22546E-01  1591   0.156E+00    0.408E-01
RMM:   5    -0.772054672616E+02   -0.36184E-02   -0.66761E-02  1560   0.871E-01    0.128E-01
RMM:   6    -0.772078249907E+02   -0.23577E-02   -0.28782E-02  1643   0.544E-01    0.635E-02
RMM:   7    -0.772087227786E+02   -0.89779E-03   -0.10358E-02  1585   0.316E-01    0.357E-02
RMM:   8    -0.772090512202E+02   -0.32844E-03   -0.37107E-03  1586   0.191E-01    0.139E-02
RMM:   9    -0.772091746370E+02   -0.12342E-03   -0.14697E-03  1515   0.120E-01    0.874E-03
RMM:  10    -0.772092253698E+02   -0.50733E-04   -0.55765E-04  1180   0.800E-02    0.490E-03
RMM:  11    -0.772092347865E+02   -0.94166E-05   -0.13028E-04   870   0.600E-02
  27 F= -.77209235E+02 E0= -.77209235E+02  d E =-.704185E-01
       N       E                     dE             d eps       ncg     rms          rms(c)
DAV:   1    -0.771647978021E+02    0.44428E-01   -0.26265E+01   960   0.263E+01    0.134E+00
RMM:   2    -0.772265432995E+02   -0.61745E-01   -0.78906E-01  1270   0.399E+00    0.513E-01
RMM:   3    -0.772379236622E+02   -0.11380E-01   -0.15808E-01  1569   0.145E+00    0.321E-01
RMM:   4    -0.772399346119E+02   -0.20109E-02   -0.47303E-02  1597   0.703E-01    0.121E-01
RMM:   5    -0.772414916136E+02   -0.15570E-02   -0.19045E-02  1585   0.413E-01    0.597E-02
RMM:   6    -0.772421079982E+02   -0.61638E-03   -0.73013E-03  1627   0.256E-01    0.262E-02
RMM:   7    -0.772423334725E+02   -0.22547E-03   -0.25718E-03  1513   0.151E-01    0.121E-02
RMM:   8    -0.772424185345E+02   -0.85062E-04   -0.95330E-04  1367   0.952E-02    0.555E-03
RMM:   9    -0.772424396270E+02   -0.21093E-04   -0.26300E-04  1015   0.640E-02    0.281E-03
RMM:  10    -0.772424458902E+02   -0.62631E-05   -0.10093E-04   917   0.533E-02
  28 F= -.77242446E+02 E0= -.77242446E+02  d E =-.332111E-01
       N       E                     dE             d eps       ncg     rms          rms(c)
DAV:   1    -0.772158871069E+02    0.26553E-01   -0.11399E+01   960   0.173E+01    0.848E-01
RMM:   2    -0.772416790407E+02   -0.25792E-01   -0.32973E-01  1273   0.261E+00    0.345E-01
RMM:   3    -0.772459682378E+02   -0.42892E-02   -0.61975E-02  1571   0.934E-01    0.224E-01
RMM:   4    -0.772467449698E+02   -0.77673E-03   -0.19730E-02  1592   0.440E-01    0.792E-02
RMM:   5    -0.772474423886E+02   -0.69742E-03   -0.83687E-03  1604   0.267E-01    0.390E-02
RMM:   6    -0.772477087913E+02   -0.26640E-03   -0.31772E-03  1546   0.165E-01    0.168E-02
RMM:   7    -0.772478105213E+02   -0.10173E-03   -0.11587E-03  1429   0.102E-01    0.836E-03
RMM:   8    -0.772478385502E+02   -0.28029E-04   -0.32986E-04  1061   0.670E-02    0.304E-03
RMM:   9    -0.772478413637E+02   -0.28135E-05   -0.68950E-05   795   0.536E-02
  29 F= -.77247841E+02 E0= -.77247841E+02  d E =-.386066E-01
       N       E                     dE             d eps       ncg     rms          rms(c)
DAV:   1    -0.772354797056E+02    0.12359E-01   -0.12595E+01   960   0.184E+01    0.992E-01
RMM:   2    -0.772612371465E+02   -0.25757E-01   -0.38315E-01  1269   0.283E+00    0.434E-01
RMM:   3    -0.772654585795E+02   -0.42214E-02   -0.78757E-02  1558   0.105E+00    0.284E-01
RMM:   4    -0.772660193117E+02   -0.56073E-03   -0.24610E-02  1570   0.516E-01    0.113E-01
RMM:   5    -0.772668148792E+02   -0.79557E-03   -0.10430E-02  1596   0.310E-01    0.589E-02
RMM:   6    -0.772671405588E+02   -0.32568E-03   -0.40058E-03  1594   0.193E-01    0.219E-02
RMM:   7    -0.772672738280E+02   -0.13327E-03   -0.16054E-03  1489   0.122E-01    0.965E-03
RMM:   8    -0.772673318553E+02   -0.58027E-04   -0.64877E-04  1297   0.808E-02    0.531E-03
RMM:   9    -0.772673393475E+02   -0.74922E-05   -0.11601E-04   826   0.575E-02
  30 F= -.77267339E+02 E0= -.77267339E+02  d E =-.194980E-01
       N       E                     dE             d eps       ncg     rms          rms(c)
DAV:   1    -0.772340657469E+02    0.33266E-01   -0.15065E+01   960   0.200E+01    0.110E+00
RMM:   2    -0.772649109208E+02   -0.30845E-01   -0.45839E-01  1266   0.309E+00    0.474E-01
RMM:   3    -0.772702455285E+02   -0.53346E-02   -0.95956E-02  1558   0.115E+00    0.312E-01
RMM:   4    -0.772708972549E+02   -0.65173E-03   -0.29552E-02  1568   0.568E-01    0.124E-01
RMM:   5    -0.772718378809E+02   -0.94063E-03   -0.12429E-02  1586   0.342E-01    0.638E-02
RMM:   6    -0.772722317262E+02   -0.39385E-03   -0.48532E-03  1611   0.214E-01    0.243E-02
RMM:   7    -0.772723946623E+02   -0.16294E-03   -0.19589E-03  1498   0.135E-01    0.108E-02
RMM:   8    -0.772724698349E+02   -0.75173E-04   -0.83361E-04  1361   0.891E-02    0.580E-03
RMM:   9    -0.772724851650E+02   -0.15330E-04   -0.20022E-04   940   0.613E-02    0.223E-03
RMM:  10    -0.772724897770E+02   -0.46120E-05   -0.87598E-05   896   0.532E-02
  31 F= -.77272490E+02 E0= -.77272490E+02  d E =-.246484E-01
       N       E                     dE             d eps       ncg     rms          rms(c)
DAV:   1    -0.772410500050E+02    0.31435E-01   -0.15065E+01   960   0.198E+01    0.148E+00
RMM:   2    -0.772808376454E+02   -0.39788E-01   -0.52575E-01  1276   0.326E+00    0.458E-01
RMM:   3    -0.772857773978E+02   -0.49398E-02   -0.98402E-02  1570   0.116E+00    0.359E-01
RMM:   4    -0.772861641512E+02   -0.38675E-03   -0.34458E-02  1529   0.583E-01    0.109E-01
RMM:   5    -0.772873221325E+02   -0.11580E-02   -0.14346E-02  1597   0.353E-01    0.538E-02
RMM:   6    -0.772877289941E+02   -0.40686E-03   -0.55266E-03  1549   0.223E-01    0.195E-02
RMM:   7    -0.772879247956E+02   -0.19580E-03   -0.22949E-03  1495   0.144E-01    0.108E-02
RMM:   8    -0.772880119130E+02   -0.87117E-04   -0.97822E-04  1385   0.954E-02    0.477E-03
RMM:   9    -0.772880348424E+02   -0.22929E-04   -0.28167E-04  1008   0.652E-02    0.308E-03
RMM:  10    -0.772880410166E+02   -0.61742E-05   -0.10582E-04   903   0.550E-02
  32 F= -.77288041E+02 E0= -.77288041E+02  d E =-.155512E-01
       N       E                     dE             d eps       ncg     rms          rms(c)
DAV:   1    -0.772758183124E+02    0.12217E-01   -0.45696E+00   976   0.109E+01    0.804E-01
RMM:   2    -0.772877215311E+02   -0.11903E-01   -0.15735E-01  1281   0.179E+00    0.251E-01
RMM:   3    -0.772891335027E+02   -0.14120E-02   -0.28775E-02  1566   0.638E-01    0.194E-01
RMM:   4    -0.772892744225E+02   -0.14092E-03   -0.10712E-02  1527   0.315E-01    0.578E-02
RMM:   5    -0.772896456278E+02   -0.37121E-03   -0.45633E-03  1535   0.196E-01    0.292E-02
RMM:   6    -0.772897800581E+02   -0.13443E-03   -0.17839E-03  1475   0.126E-01    0.101E-02
RMM:   7    -0.772898395830E+02   -0.59525E-04   -0.69739E-04  1326   0.832E-02    0.619E-03
RMM:   8    -0.772898506680E+02   -0.11085E-04   -0.15350E-04   873   0.587E-02
  33 F= -.77289851E+02 E0= -.77289851E+02  d E =-.173609E-01
       N       E                     dE             d eps       ncg     rms          rms(c)
DAV:   1    -0.772566748198E+02    0.33165E-01   -0.13581E+01   960   0.186E+01    0.121E+00
RMM:   2    -0.773003070514E+02   -0.43632E-01   -0.52723E-01  1269   0.317E+00    0.427E-01
RMM:   3    -0.773045616702E+02   -0.42546E-02   -0.90688E-02  1571   0.112E+00    0.356E-01
RMM:   4    -0.773053527510E+02   -0.79108E-03   -0.31488E-02  1544   0.533E-01    0.130E-01
RMM:   5    -0.773064301226E+02   -0.10774E-02   -0.12966E-02  1557   0.324E-01    0.575E-02
RMM:   6    -0.773067996103E+02   -0.36949E-03   -0.51107E-03  1527   0.209E-01    0.206E-02
RMM:   7    -0.773069819407E+02   -0.18233E-03   -0.21585E-03  1448   0.136E-01    0.107E-02
RMM:   8    -0.773070662359E+02   -0.84295E-04   -0.94817E-04  1335   0.920E-02    0.494E-03
RMM:   9    -0.773070878889E+02   -0.21653E-04   -0.27150E-04   978   0.636E-02    0.206E-03
RMM:  10    -0.773070923724E+02   -0.44835E-05   -0.89869E-05   895   0.541E-02
  34 F= -.77307092E+02 E0= -.77307092E+02  d E =-.172417E-01
       N       E                     dE             d eps       ncg     rms          rms(c)
DAV:   1    -0.772951884533E+02    0.11899E-01   -0.38479E+00   976   0.988E+00    0.627E-01
RMM:   2    -0.773073805826E+02   -0.12192E-01   -0.14717E-01  1272   0.168E+00    0.228E-01
RMM:   3    -0.773087255822E+02   -0.13450E-02   -0.25528E-02  1547   0.596E-01    0.189E-01
RMM:   4    -0.773089637522E+02   -0.23817E-03   -0.93436E-03  1513   0.291E-01    0.651E-02
RMM:   5    -0.773092935035E+02   -0.32975E-03   -0.39219E-03  1525   0.180E-01    0.304E-02
RMM:   6    -0.773094040504E+02   -0.11055E-03   -0.15499E-03  1447   0.115E-01    0.114E-02
RMM:   7    -0.773094530863E+02   -0.49036E-04   -0.60089E-04  1233   0.779E-02    0.570E-03
RMM:   8    -0.773094659432E+02   -0.12857E-04   -0.17283E-04   917   0.574E-02
  35 F= -.77309466E+02 E0= -.77309466E+02  d E =-.196153E-01
       N       E                     dE             d eps       ncg     rms          rms(c)
DAV:   1    -0.772890523887E+02    0.20401E-01   -0.78229E+00   960   0.140E+01    0.106E+00
RMM:   2    -0.773150256207E+02   -0.25973E-01   -0.31321E-01  1269   0.246E+00    0.372E-01
RMM:   3    -0.773181046793E+02   -0.30791E-02   -0.55293E-02  1581   0.869E-01    0.334E-01
RMM:   4    -0.773184789393E+02   -0.37426E-03   -0.18982E-02  1539   0.416E-01    0.115E-01
RMM:   5    -0.773190915899E+02   -0.61265E-03   -0.75848E-03  1544   0.253E-01    0.495E-02
RMM:   6    -0.773192914912E+02   -0.19990E-03   -0.30938E-03  1513   0.164E-01    0.173E-02
RMM:   7    -0.773194083519E+02   -0.11686E-03   -0.13473E-03  1421   0.107E-01    0.114E-02
RMM:   8    -0.773194485103E+02   -0.40158E-04   -0.46664E-04  1144   0.729E-02    0.582E-03
RMM:   9    -0.773194582517E+02   -0.97415E-05   -0.15154E-04   917   0.564E-02
  36 F= -.77319458E+02 E0= -.77319458E+02  d E =-.999231E-02
       N       E                     dE             d eps       ncg     rms          rms(c)
DAV:   1    -0.773176666898E+02    0.17818E-02   -0.56232E-01  1168   0.376E+00    0.282E-01
RMM:   2    -0.773195602934E+02   -0.18936E-02   -0.22825E-02  1278   0.662E-01    0.967E-02
RMM:   3    -0.773197964140E+02   -0.23612E-03   -0.40858E-03  1561   0.238E-01    0.820E-02
RMM:   4    -0.773198412416E+02   -0.44828E-04   -0.15217E-03  1450   0.117E-01    0.257E-02
RMM:   5    -0.773198878106E+02   -0.46569E-04   -0.57208E-04  1237   0.750E-02    0.115E-02
RMM:   6    -0.773198923235E+02   -0.45129E-05   -0.12246E-04   870   0.539E-02
  37 F= -.77319892E+02 E0= -.77319892E+02  d E =-.104264E-01
       N       E                     dE             d eps       ncg     rms          rms(c)
DAV:   1    -0.773115062220E+02    0.83816E-02   -0.38403E+00   960   0.979E+00    0.743E-01
RMM:   2    -0.773249879331E+02   -0.13482E-01   -0.15984E-01  1281   0.176E+00    0.262E-01
RMM:   3    -0.773264393232E+02   -0.14514E-02   -0.26355E-02  1555   0.604E-01    0.226E-01
RMM:   4    -0.773265851618E+02   -0.14584E-03   -0.95607E-03  1520   0.293E-01    0.828E-02
RMM:   5    -0.773269102729E+02   -0.32511E-03   -0.39166E-03  1531   0.183E-01    0.330E-02
RMM:   6    -0.773270141564E+02   -0.10388E-03   -0.16108E-03  1462   0.119E-01    0.109E-02
RMM:   7    -0.773270695938E+02   -0.55437E-04   -0.66866E-04  1330   0.808E-02    0.658E-03
RMM:   8    -0.773270833556E+02   -0.13762E-04   -0.17920E-04   905   0.582E-02
  38 F= -.77327083E+02 E0= -.77327083E+02  d E =-.719103E-02
       N       E                     dE             d eps       ncg     rms          rms(c)
DAV:   1    -0.773226711721E+02    0.43984E-02   -0.15176E+00   992   0.616E+00    0.466E-01
RMM:   2    -0.773281323218E+02   -0.54611E-02   -0.64511E-02  1285   0.111E+00    0.167E-01
RMM:   3    -0.773286869113E+02   -0.55459E-03   -0.10703E-02  1529   0.386E-01    0.142E-01
RMM:   4    -0.773287661414E+02   -0.79230E-04   -0.40125E-03  1497   0.195E-01    0.517E-02
RMM:   5    -0.773289051202E+02   -0.13898E-03   -0.16687E-03  1492   0.122E-01    0.203E-02
RMM:   6    -0.773289516857E+02   -0.46565E-04   -0.68248E-04  1403   0.792E-02    0.672E-03
RMM:   7    -0.773289585885E+02   -0.69029E-05   -0.11782E-04   776   0.542E-02
  39 F= -.77328959E+02 E0= -.77328959E+02  d E =-.906627E-02
       N       E                     dE             d eps       ncg     rms          rms(c)
DAV:   1    -0.773210187898E+02    0.79329E-02   -0.38212E+00   960   0.969E+00    0.959E-01
RMM:   2    -0.773355976566E+02   -0.14579E-01   -0.17724E-01  1281   0.182E+00    0.279E-01
RMM:   3    -0.773363682903E+02   -0.77063E-03   -0.27040E-02  1583   0.624E-01    0.241E-01
RMM:   4    -0.773364869779E+02   -0.11869E-03   -0.96612E-03  1553   0.293E-01    0.955E-02
RMM:   5    -0.773367986820E+02   -0.31170E-03   -0.40362E-03  1484   0.183E-01    0.336E-02
RMM:   6    -0.773369262741E+02   -0.12759E-03   -0.16693E-03  1428   0.119E-01    0.109E-02
RMM:   7    -0.773369838020E+02   -0.57528E-04   -0.67932E-04  1289   0.803E-02    0.763E-03
RMM:   8    -0.773369988977E+02   -0.15096E-04   -0.19812E-04   896   0.578E-02
  40 F= -.77336999E+02 E0= -.77336999E+02  d E =-.804031E-02
       N       E                     dE             d eps       ncg     rms          rms(c)
DAV:   1    -0.773333487664E+02    0.36350E-02   -0.11792E+00   992   0.538E+00    0.526E-01
RMM:   2    -0.773379320401E+02   -0.45833E-02   -0.55282E-02  1286   0.102E+00    0.156E-01
RMM:   3    -0.773381964270E+02   -0.26439E-03   -0.86184E-03  1574   0.352E-01    0.131E-01
RMM:   4    -0.773382523112E+02   -0.55884E-04   -0.32016E-03  1463   0.168E-01    0.515E-02
RMM:   5    -0.773383619716E+02   -0.10966E-03   -0.13825E-03  1451   0.109E-01    0.186E-02
RMM:   6    -0.773384026170E+02   -0.40645E-04   -0.52336E-04  1244   0.721E-02    0.552E-03
RMM:   7    -0.773384100624E+02   -0.74454E-05   -0.11738E-04   857   0.527E-02
  41 F= -.77338410E+02 E0= -.77338410E+02  d E =-.945147E-02
       N       E                     dE             d eps       ncg     rms          rms(c)
DAV:   1    -0.773353521442E+02    0.30505E-02   -0.19380E+00   976   0.691E+00    0.631E-01
RMM:   2    -0.773424290063E+02   -0.70769E-02   -0.86500E-02  1297   0.128E+00    0.198E-01
RMM:   3    -0.773430402804E+02   -0.61127E-03   -0.13106E-02  1580   0.435E-01    0.167E-01
RMM:   4    -0.773431056182E+02   -0.65338E-04   -0.45930E-03  1523   0.204E-01    0.680E-02
RMM:   5    -0.773432577020E+02   -0.15208E-03   -0.19778E-03  1494   0.132E-01    0.227E-02
RMM:   6    -0.773433206971E+02   -0.62995E-04   -0.84487E-04  1416   0.878E-02    0.690E-03
RMM:   7    -0.773433372896E+02   -0.16593E-04   -0.21439E-04   871   0.601E-02    0.467E-03
RMM:   8    -0.773433407566E+02   -0.34671E-05   -0.79390E-05   832   0.525E-02
  42 F= -.77343341E+02 E0= -.77343341E+02  d E =-.493069E-02
       N       E                     dE             d eps       ncg     rms          rms(c)
DAV:   1    -0.773354016655E+02    0.79356E-02   -0.23805E+00   960   0.766E+00    0.707E-01
RMM:   2    -0.773441456645E+02   -0.87440E-02   -0.10655E-01  1290   0.142E+00    0.221E-01
RMM:   3    -0.773448197053E+02   -0.67404E-03   -0.16108E-02  1586   0.482E-01    0.188E-01
RMM:   4    -0.773448902539E+02   -0.70549E-04   -0.56064E-03  1533   0.225E-01    0.765E-02
RMM:   5    -0.773450740064E+02   -0.18375E-03   -0.24088E-03  1494   0.145E-01    0.253E-02
RMM:   6    -0.773451509221E+02   -0.76916E-04   -0.10368E-03  1424   0.969E-02    0.755E-03
RMM:   7    -0.773451779556E+02   -0.27033E-04   -0.33023E-04   997   0.664E-02    0.540E-03
RMM:   8    -0.773451867619E+02   -0.88063E-05   -0.13405E-04   907   0.548E-02
  43 F= -.77345187E+02 E0= -.77345187E+02  d E =-.677670E-02
       N       E                     dE             d eps       ncg     rms          rms(c)
DAV:   1    -0.773453462398E+02   -0.16828E-03   -0.40576E-01  1088   0.316E+00    0.259E-01
RMM:   2    -0.773466989247E+02   -0.13527E-02   -0.18022E-02  1291   0.586E-01    0.101E-01
RMM:   3    -0.773468086615E+02   -0.10974E-03   -0.29512E-03  1534   0.208E-01    0.803E-02
RMM:   4    -0.773468346755E+02   -0.26014E-04   -0.11449E-03  1445   0.105E-01    0.302E-02
RMM:   5    -0.773468674776E+02   -0.32802E-04   -0.43003E-04  1120   0.696E-02    0.109E-02
RMM:   6    -0.773468737818E+02   -0.63042E-05   -0.11877E-04   906   0.527E-02
  44 F= -.77346874E+02 E0= -.77346874E+02  d E =-.168702E-02
       N       E                     dE             d eps       ncg     rms          rms(c)
DAV:   1    -0.773446631727E+02    0.22043E-02   -0.87850E-01   976   0.465E+00    0.382E-01
RMM:   2    -0.773475440774E+02   -0.28809E-02   -0.38403E-02  1287   0.858E-01    0.148E-01
RMM:   3    -0.773477630464E+02   -0.21897E-03   -0.61694E-03  1535   0.301E-01    0.118E-01
RMM:   4    -0.773478072373E+02   -0.44191E-04   -0.23679E-03  1478   0.151E-01    0.447E-02
RMM:   5    -0.773478924862E+02   -0.85249E-04   -0.10700E-03  1400   0.987E-02    0.185E-02
RMM:   6    -0.773479221949E+02   -0.29709E-04   -0.38560E-04  1119   0.661E-02    0.682E-03
RMM:   7    -0.773479302749E+02   -0.80800E-05   -0.13249E-04   958   0.519E-02
  45 F= -.77347930E+02 E0= -.77347930E+02  d E =-.274351E-02
       N       E                     dE             d eps       ncg     rms          rms(c)
DAV:   1    -0.773470576288E+02    0.86457E-03   -0.73750E-01   960   0.422E+00    0.386E-01
RMM:   2    -0.773493572514E+02   -0.22996E-02   -0.29451E-02  1284   0.751E-01    0.132E-01
RMM:   3    -0.773495607626E+02   -0.20351E-03   -0.46816E-03  1577   0.262E-01    0.110E-01
RMM:   4    -0.773495855356E+02   -0.24773E-04   -0.17051E-03  1452   0.126E-01    0.316E-02
RMM:   5    -0.773496442043E+02   -0.58669E-04   -0.73748E-04  1386   0.838E-02    0.125E-02
RMM:   6    -0.773496563836E+02   -0.12179E-04   -0.19725E-04   896   0.587E-02
  46 F= -.77349656E+02 E0= -.77349656E+02  d E =-.172611E-02
       N       E                     dE             d eps       ncg     rms          rms(c)
DAV:   1    -0.773494258103E+02    0.21839E-03   -0.10704E-01  1128   0.160E+00    0.148E-01
RMM:   2    -0.773498064309E+02   -0.38062E-03   -0.46741E-03  1302   0.294E-01    0.503E-02
RMM:   3    -0.773498479092E+02   -0.41478E-04   -0.86137E-04  1522   0.112E-01    0.406E-02
RMM:   4    -0.773498582037E+02   -0.10295E-04   -0.32513E-04  1321   0.604E-02    0.119E-02
RMM:   5    -0.773498548095E+02    0.33943E-05    0.29551E-06   632   0.431E-02
  47 F= -.77349855E+02 E0= -.77349855E+02  d E =-.192453E-02
       N       E                     dE             d eps       ncg     rms          rms(c)
DAV:   1    -0.773490886415E+02    0.76956E-03   -0.78878E-01   960   0.431E+00    0.322E-01
RMM:   2    -0.773511000526E+02   -0.20114E-02   -0.26695E-02  1284   0.714E-01    0.107E-01
RMM:   3    -0.773512931573E+02   -0.19310E-03   -0.43997E-03  1513   0.251E-01    0.818E-02
RMM:   4    -0.773513162353E+02   -0.23078E-04   -0.16609E-03  1450   0.129E-01    0.246E-02
RMM:   5    -0.773513733454E+02   -0.57110E-04   -0.71129E-04  1365   0.838E-02    0.116E-02
RMM:   6    -0.773513841877E+02   -0.10842E-04   -0.17672E-04   904   0.567E-02
  48 F= -.77351384E+02 E0= -.77351384E+02  d E =-.152938E-02
       N       E                     dE             d eps       ncg     rms          rms(c)
DAV:   1    -0.773496328451E+02    0.17405E-02   -0.83421E-01   960   0.443E+00    0.330E-01
RMM:   2    -0.773517763610E+02   -0.21435E-02   -0.28219E-02  1285   0.735E-01    0.111E-01
RMM:   3    -0.773519897643E+02   -0.21340E-03   -0.47455E-03  1527   0.261E-01    0.851E-02
RMM:   4    -0.773520165030E+02   -0.26739E-04   -0.17991E-03  1457   0.135E-01    0.254E-02
RMM:   5    -0.773520802170E+02   -0.63714E-04   -0.78373E-04  1398   0.876E-02    0.120E-02
RMM:   6    -0.773520933959E+02   -0.13179E-04   -0.20475E-04   953   0.591E-02    0.332E-03
RMM:   7    -0.773521000013E+02   -0.66054E-05   -0.10945E-04   957   0.511E-02
  49 F= -.77352100E+02 E0= -.77352100E+02  d E =-.224519E-02
       N       E                     dE             d eps       ncg     rms          rms(c)
DAV:   1    -0.773505291794E+02    0.15642E-02   -0.90358E-01   960   0.465E+00    0.351E-01
RMM:   2    -0.773530065050E+02   -0.24773E-02   -0.31349E-02  1285   0.781E-01    0.117E-01
RMM:   3    -0.773532728244E+02   -0.26632E-03   -0.53773E-03  1520   0.278E-01    0.902E-02
RMM:   4    -0.773533247315E+02   -0.51907E-04   -0.20916E-03  1454   0.145E-01    0.262E-02
RMM:   5    -0.773534009376E+02   -0.76206E-04   -0.92084E-04  1433   0.934E-02    0.123E-02
RMM:   6    -0.773534171754E+02   -0.16238E-04   -0.22379E-04   894   0.607E-02    0.443E-03
RMM:   7    -0.773534247550E+02   -0.75796E-05   -0.12003E-04   956   0.527E-02
  50 F= -.77353425E+02 E0= -.77353425E+02  d E =-.132475E-02
       N       E                     dE             d eps       ncg     rms          rms(c)
DAV:   1    -0.773530147571E+02    0.40242E-03   -0.15650E-01  1040   0.194E+00    0.144E-01
RMM:   2    -0.773534844759E+02   -0.46972E-03   -0.58186E-03  1299   0.332E-01    0.496E-02
RMM:   3    -0.773535466454E+02   -0.62169E-04   -0.11256E-03  1492   0.126E-01    0.375E-02
RMM:   4    -0.773535642107E+02   -0.17565E-04   -0.45891E-04  1408   0.697E-02    0.111E-02
RMM:   5    -0.773535610106E+02    0.32001E-05    0.12658E-06   610   0.461E-02
  51 F= -.77353561E+02 E0= -.77353561E+02  d E =-.146101E-02
       N       E                     dE             d eps       ncg     rms          rms(c)
DAV:   1    -0.773519937855E+02    0.15704E-02   -0.89549E-01   960   0.466E+00    0.304E-01
RMM:   2    -0.773541727783E+02   -0.21790E-02   -0.30227E-02  1286   0.766E-01    0.119E-01
RMM:   3    -0.773544715768E+02   -0.29880E-03   -0.56260E-03  1565   0.280E-01    0.894E-02
RMM:   4    -0.773545221380E+02   -0.50561E-04   -0.20472E-03  1472   0.139E-01    0.293E-02
RMM:   5    -0.773545977228E+02   -0.75585E-04   -0.92897E-04  1435   0.919E-02    0.140E-02
RMM:   6    -0.773546166965E+02   -0.18974E-04   -0.26389E-04   971   0.621E-02    0.427E-03
RMM:   7    -0.773546202446E+02   -0.35481E-05   -0.81120E-05   900   0.524E-02
  52 F= -.77354620E+02 E0= -.77354620E+02  d E =-.105923E-02
       N       E                     dE             d eps       ncg     rms          rms(c)
DAV:   1    -0.773528596878E+02    0.17570E-02   -0.70844E-01   960   0.414E+00    0.270E-01
RMM:   2    -0.773545937254E+02   -0.17340E-02   -0.23998E-02  1285   0.682E-01    0.105E-01
RMM:   3    -0.773548356910E+02   -0.24197E-03   -0.45399E-03  1565   0.252E-01    0.792E-02
RMM:   4    -0.773548794120E+02   -0.43721E-04   -0.16625E-03  1453   0.126E-01    0.261E-02
RMM:   5    -0.773549396204E+02   -0.60208E-04   -0.73977E-04  1378   0.841E-02    0.124E-02
RMM:   6    -0.773549487845E+02   -0.91641E-05   -0.15317E-04   849   0.581E-02
  53 F= -.77354949E+02 E0= -.77354949E+02  d E =-.138777E-02
       N       E                     dE             d eps       ncg     rms          rms(c)
DAV:   1    -0.773548602621E+02    0.79358E-04   -0.13342E-01  1056   0.172E+00    0.213E-01
RMM:   2    -0.773553835381E+02   -0.52328E-03   -0.64248E-03  1280   0.345E-01    0.600E-02
RMM:   3    -0.773554159363E+02   -0.32398E-04   -0.11099E-03  1491   0.125E-01    0.516E-02
RMM:   4    -0.773554249592E+02   -0.90229E-05   -0.48509E-04  1344   0.689E-02    0.153E-02
RMM:   5    -0.773554202967E+02    0.46625E-05    0.10698E-05   610   0.460E-02
  54 F= -.77355420E+02 E0= -.77355420E+02  d E =-.471512E-03
       N       E                     dE             d eps       ncg     rms          rms(c)
DAV:   1    -0.773553654185E+02    0.59541E-04   -0.20351E-02  1216   0.670E-01    0.841E-02
RMM:   2    -0.773554607196E+02   -0.95301E-04   -0.11272E-03  1307   0.141E-01    0.231E-02
RMM:   3    -0.773554593542E+02    0.13654E-05   -0.11569E-04   957   0.586E-02
  55 F= -.77355459E+02 E0= -.77355459E+02  d E =-.510570E-03
       N       E                     dE             d eps       ncg     rms          rms(c)
DAV:   1    -0.773554091602E+02    0.51559E-04   -0.82700E-02   968   0.135E+00    0.163E-01
RMM:   2    -0.773558017016E+02   -0.39254E-03   -0.48411E-03  1248   0.285E-01    0.533E-02
RMM:   3    -0.773557939891E+02    0.77125E-05   -0.76429E-04  1458   0.103E-01    0.471E-02
RMM:   4    -0.773558000099E+02   -0.60208E-05   -0.30768E-04  1268   0.544E-02    0.175E-02
RMM:   5    -0.773557955567E+02    0.44532E-05    0.17974E-05   580   0.364E-02
  56 F= -.77355796E+02 E0= -.77355796E+02  d E =-.336203E-03
       N       E                     dE             d eps       ncg     rms          rms(c)
DAV:   1    -0.773556501451E+02    0.14986E-03   -0.34677E-02  1024   0.872E-01    0.109E-01
RMM:   2    -0.773558192292E+02   -0.16908E-03   -0.20814E-03  1257   0.188E-01    0.332E-02
RMM:   3    -0.773558264764E+02   -0.72473E-05   -0.35564E-04  1313   0.703E-02    0.288E-02
RMM:   4    -0.773558165580E+02    0.99184E-05    0.45114E-07   644   0.403E-02
  57 F= -.77355817E+02 E0= -.77355817E+02  d E =-.357204E-03
       N       E                     dE             d eps       ncg     rms          rms(c)
DAV:   1    -0.773558795253E+02   -0.53049E-04   -0.17218E-02  1072   0.626E-01    0.721E-02
RMM:   2    -0.773559251893E+02   -0.45664E-04   -0.96862E-04  1243   0.131E-01    0.268E-02
RMM:   3    -0.773559106380E+02    0.14551E-04   -0.75894E-05   884   0.514E-02
  58 F= -.77355911E+02 E0= -.77355911E+02  d E =-.940800E-04
       N       E                     dE             d eps       ncg     rms          rms(c)
DAV:   1    -0.773559194929E+02    0.56965E-05   -0.89302E-03  1088   0.448E-01    0.473E-02
RMM:   2    -0.773559521593E+02   -0.32666E-04   -0.52802E-04  1240   0.976E-02    0.207E-02
RMM:   3    -0.773559404536E+02    0.11706E-04    0.64545E-06   614   0.421E-02
  59 F= -.77355940E+02 E0= -.77355940E+02  d E =-.123896E-03
