 vasp.5.4.4.18Apr17-6-g9f103f2a35 (build Feb 14 2024 16:55:51) complex           
 executed on             LinuxGNU date 2024.06.05  14:41:18
 running on   64 total cores
 distrk:  each k-point on   64 cores,    1 groups
 distr:  one band on NCORES_PER_BAND=  16 cores,    4 groups


--------------------------------------------------------------------------------------------------------


 INCAR:
 POTCAR:    PAW Li_sv 10Sep2004                   
 POTCAR:    PAW P 26Mar2009                       
 POTCAR:    PAW S 27Mar2009                       
 POTCAR:    PAW Li_sv 10Sep2004                   
   VRHFIN =Li: 1s2s                                                             
   LEXCH  = CA                                                                  
   EATOM  =   199.5738 eV,   14.6683 Ry                                         
                                                                                
   TITEL  = PAW Li_sv 10Sep2004                                                 
   LULTRA =        F    use ultrasoft PP ?                                      
   IUNSCR =        0    unscreen: 0-lin 1-nonlin 2-no                           
   RPACOR =    0.000    partial core radius                                     
   POMASS =    7.010; ZVAL   =    3.000    mass and valenz                      
   RCORE  =    1.700    outmost cutoff radius                                   
   RWIGS  =    2.050; RWIGS  =    1.085    wigner-seitz radius (au A)           
   ENMAX  =  498.387; ENMIN  =  373.790 eV                                      
   ICORE  =        2    local potential                                         
   LCOR   =        T    correct aug charges                                     
   LPAW   =        T    paw PP                                                  
   EAUG   =  628.945                                                            
   RMAX   =    1.732    core radius for proj-oper                               
   RAUG   =    1.300    factor for augmentation sphere                          
   RDEP   =    1.728    radius for radial grids                                 
   RDEPT  =    1.329    core radius for aug-charge                              
                                                                                
   Atomic configuration                                                         
    4 entries                                                                   
     n  l   j            E        occ.                                          
     1  0  0.50       -51.0884   2.0000                                         
     2  0  0.50        -2.8766   1.0000                                         
     2  1  0.50        -2.8708   0.0000                                         
     3  2  1.50        -1.3606   0.0000                                         
   Description                                                                  
     l       E           TYP  RCUT    TYP  RCUT                                 
     0    -51.0884324     23  1.400                                             
     0     -2.8766458     23  1.700                                             
     1     -2.8708293     23  1.400                                             
     2     -1.3605826     23  1.400                                             
  local pseudopotential read in
  atomic valenz-charges read in
  non local Contribution for L=           0  read in
    real space projection operators read in
  non local Contribution for L=           0  read in
    real space projection operators read in
  non local Contribution for L=           1  read in
    real space projection operators read in
    PAW grid and wavefunctions read in

   number of l-projection  operators is LMAX  =           3
   number of lm-projection operators is LMMAX =           5

 POTCAR:    PAW P 26Mar2009                       
   VRHFIN =P : s2p3                                                             
   LEXCH  = CA                                                                  
   EATOM  =   176.5121 eV,   12.9733 Ry                                         
                                                                                
   TITEL  = PAW P 26Mar2009                                                     
   LULTRA =        F    use ultrasoft PP ?                                      
   IUNSCR =        1    unscreen: 0-lin 1-nonlin 2-no                           
   RPACOR =    1.500    partial core radius                                     
   POMASS =   30.974; ZVAL   =    5.000    mass and valenz                      
   RCORE  =    1.900    outmost cutoff radius                                   
   RWIGS  =    2.330; RWIGS  =    1.233    wigner-seitz radius (au A)           
   ENMAX  =  255.155; ENMIN  =  191.366 eV                                      
   ICORE  =        2    local potential                                         
   LCOR   =        T    correct aug charges                                     
   LPAW   =        T    paw PP                                                  
   EAUG   =  342.924                                                            
   DEXC   =    0.000                                                            
   RMAX   =    1.935    core radius for proj-oper                               
   RAUG   =    1.300    factor for augmentation sphere                          
   RDEP   =    1.931    radius for radial grids                                 
   RDEPT  =    1.780    core radius for aug-charge                              
                                                                                
   Atomic configuration                                                         
    6 entries                                                                   
     n  l   j            E        occ.                                          
     1  0  0.50     -2072.7761   2.0000                                         
     2  0  0.50      -172.9483   2.0000                                         
     2  1  1.50      -124.4644   6.0000                                         
     3  0  0.50       -14.0086   2.0000                                         
     3  1  0.50        -5.6037   3.0000                                         
     3  2  1.50        -6.8029   0.0000                                         
   Description                                                                  
     l       E           TYP  RCUT    TYP  RCUT                                 
     0    -14.0086211     23  1.900                                             
     0    -11.8189335     23  1.900                                             
     1     -5.6037292     23  1.900                                             
     1     -0.3527308     23  1.900                                             
     2     -6.8029130     23  1.900                                             
  local pseudopotential read in
  partial core-charges read in
  partial kinetic energy density read in
  atomic valenz-charges read in
  non local Contribution for L=           0  read in
    real space projection operators read in
  non local Contribution for L=           0  read in
    real space projection operators read in
  non local Contribution for L=           1  read in
    real space projection operators read in
  non local Contribution for L=           1  read in
    real space projection operators read in
    PAW grid and wavefunctions read in

   number of l-projection  operators is LMAX  =           4
   number of lm-projection operators is LMMAX =           8

 POTCAR:    PAW S 27Mar2009                       
   VRHFIN =S : s2p4                                                             
   LEXCH  = CA                                                                  
   EATOM  =   277.3745 eV,   20.3864 Ry                                         
                                                                                
   TITEL  = PAW S 27Mar2009                                                     
   LULTRA =        F    use ultrasoft PP ?                                      
   IUNSCR =        1    unscreen: 0-lin 1-nonlin 2-no                           
   RPACOR =    1.500    partial core radius                                     
   POMASS =   32.066; ZVAL   =    6.000    mass and valenz                      
   RCORE  =    1.900    outmost cutoff radius                                   
   RWIGS  =    2.200; RWIGS  =    1.164    wigner-seitz radius (au A)           
   ENMAX  =  258.602; ENMIN  =  193.952 eV                                      
   ICORE  =        2    local potential                                         
   LCOR   =        T    correct aug charges                                     
   LPAW   =        T    paw PP                                                  
   EAUG   =  335.092                                                            
   DEXC   =    0.000                                                            
   RMAX   =    1.942    core radius for proj-oper                               
   RAUG   =    1.300    factor for augmentation sphere                          
   RDEP   =    1.954    radius for radial grids                                 
   RDEPT  =    1.744    core radius for aug-charge                              
                                                                                
   Atomic configuration                                                         
    6 entries                                                                   
     n  l   j            E        occ.                                          
     1  0  0.50     -2393.1495   2.0000                                         
     2  0  0.50      -210.5411   2.0000                                         
     2  1  1.50      -156.4410   6.0000                                         
     3  0  0.50       -17.2664   2.0000                                         
     3  1  0.50        -7.1129   4.0000                                         
     3  2  1.50        -8.1635   0.0000                                         
   Description                                                                  
     l       E           TYP  RCUT    TYP  RCUT                                 
     0    -17.2664422     23  1.900                                             
     0    -15.8420823     23  1.900                                             
     1     -7.1129072     23  1.900                                             
     1     -2.8398274     23  1.900                                             
     2     -8.1634956     23  1.900                                             
  local pseudopotential read in
  partial core-charges read in
  partial kinetic energy density read in
  atomic valenz-charges read in
  non local Contribution for L=           0  read in
    real space projection operators read in
  non local Contribution for L=           0  read in
    real space projection operators read in
  non local Contribution for L=           1  read in
    real space projection operators read in
  non local Contribution for L=           1  read in
    real space projection operators read in
    PAW grid and wavefunctions read in

   number of l-projection  operators is LMAX  =           4
   number of lm-projection operators is LMMAX =           8

 Optimization of the real space projectors (new method)

 maximal supplied QI-value         = 22.11
 optimisation between [QCUT,QGAM] = [ 10.39, 20.78] = [ 30.24,120.96] Ry 
 Optimized for a Real-space Cutoff    1.20 Angstroem

   l    n(q)    QCUT    max X(q) W(low)/X(q) W(high)/X(q)  e(spline) 
   0      7    10.392    10.443    0.77E-04    0.41E-05    0.30E-07
   0      7    10.392     8.514    0.20E-03    0.36E-04    0.67E-07
   1      7    10.392     5.406    0.20E-03    0.20E-03    0.12E-06
 Optimization of the real space projectors (new method)

 maximal supplied QI-value         = 19.84
 optimisation between [QCUT,QGAM] = [ 10.32, 20.83] = [ 29.81,121.55] Ry 
 Optimized for a Real-space Cutoff    1.39 Angstroem

   l    n(q)    QCUT    max X(q) W(low)/X(q) W(high)/X(q)  e(spline) 
   0      9    10.318   158.476    0.64E-04    0.80E-04    0.60E-07
   0      9    10.318   128.097    0.63E-04    0.79E-04    0.60E-07
   1      8    10.318    73.217    0.18E-03    0.19E-03    0.20E-06
   1      8    10.318    48.248    0.18E-03    0.19E-03    0.19E-06
 Optimization of the real space projectors (new method)

 maximal supplied QI-value         = 19.84
 optimisation between [QCUT,QGAM] = [ 10.32, 20.83] = [ 29.81,121.55] Ry 
 Optimized for a Real-space Cutoff    1.39 Angstroem

   l    n(q)    QCUT    max X(q) W(low)/X(q) W(high)/X(q)  e(spline) 
   0      9    10.318   180.455    0.73E-04    0.81E-04    0.62E-07
   0      9    10.318   157.733    0.72E-04    0.81E-04    0.62E-07
   1      8    10.318    66.201    0.18E-03    0.20E-03    0.20E-06
   1      8    10.318    49.617    0.18E-03    0.20E-03    0.20E-06
  PAW Li_sv 10Sep2004                   :
 energy of atom  1       EATOM= -199.5738
 kinetic energy error for atom=    0.0564 (will be added to EATOM!!)
  PAW P 26Mar2009                       :
 energy of atom  2       EATOM= -176.5121
 kinetic energy error for atom=    0.0021 (will be added to EATOM!!)
  PAW S 27Mar2009                       :
 energy of atom  3       EATOM= -277.3745
 kinetic energy error for atom=    0.0041 (will be added to EATOM!!)


 POSCAR: Li6 P2 S8                               
  positions in direct lattice
  No initial velocities read in
 exchange correlation table for  LEXCH =        2
   RHO(1)=    0.500       N(1)  =     2000
   RHO(2)=  100.500       N(2)  =     4000



--------------------------------------------------------------------------------------------------------


 ion  position               nearest neighbor table
   1  0.784  0.358  0.988-  10 2.08  11 2.14   4 2.53  14 2.65
   2  0.216  0.858  0.012-  14 2.08  15 2.14   3 2.53  10 2.65
   3  0.513  0.789  0.233-   2 2.53  11 2.58   9 2.63
   4  0.487  0.289  0.767-   1 2.53  15 2.58  13 2.63
   5  0.834  0.348  0.430-  16 1.89  13 2.13  11 2.15  12 2.66
   6  0.166  0.848  0.570-  12 1.89   9 2.13  15 2.15  16 2.66
   7  0.272  0.341  0.260-   9 2.03  10 2.03  12 2.04  11 2.04
   8  0.728  0.841  0.740-  13 2.03  14 2.03  16 2.04  15 2.04
   9  0.177  0.028  0.334-   7 2.03   6 2.13   3 2.63  12 2.72
  10  0.114  0.426  0.039-   7 2.03   1 2.08   2 2.65
  11  0.602  0.364  0.221-   7 2.04   1 2.14   5 2.15   3 2.58
  12  0.202  0.589  0.432-   6 1.89   7 2.04   5 2.66   9 2.72
  13  0.823  0.528  0.666-   8 2.03   5 2.13   4 2.63  16 2.72
  14  0.886  0.926  0.961-   8 2.03   2 2.08   1 2.65
  15  0.398  0.864  0.779-   8 2.04   2 2.14   6 2.15   4 2.58
  16  0.798  0.089  0.568-   5 1.89   8 2.04   6 2.66  13 2.72

  LATTYP: Found a simple monoclinic cell.
 ALAT       =     9.8503655669
 B/A-ratio  =     0.6019128632
 C/A-ratio  =     1.6946517378
 COS(beta)  =    -0.9570504781
  
  Lattice vectors:
  
 A1 = (  -6.1065390136,   0.0000000000,  -7.7291579799)
 A2 = (   0.0000000000,  -5.9290617423,   0.0000000000)
 A3 = (   6.1065390136,   0.0000000000,  15.5359067301)


Analysis of symmetry for initial positions (statically):
=====================================================================
 Subroutine PRICEL returns:
 Original cell was already a primitive cell.
 

 Routine SETGRP: Setting up the symmetry group for a 
 simple monoclinic supercell.


 Subroutine GETGRP returns: Found  2 space group operations
 (whereof  1 operations were pure point group operations)
 out of a pool of  4 trial point group operations.


The static configuration has the point symmetry C_1 .
 The point group associated with its full space group is C_2 .


Analysis of symmetry for dynamics (positions and initial velocities):
=====================================================================
 Subroutine PRICEL returns:
 Original cell was already a primitive cell.
 

 Routine SETGRP: Setting up the symmetry group for a 
 simple monoclinic supercell.


 Subroutine GETGRP returns: Found  2 space group operations
 (whereof  1 operations were pure point group operations)
 out of a pool of  4 trial point group operations.


The dynamic configuration has the point symmetry C_1 .
 The point group associated with its full space group is C_2 .


 Subroutine INISYM returns: Found  2 space group operations
 (whereof  1 operations are pure point group operations),
 and found     1 'primitive' translations



 KPOINTS: Automatic mesh                          

Automatic generation of k-mesh.
Space group operators:
 irot       det(A)        alpha          n_x          n_y          n_z        tau_x        tau_y        tau_z
    1     1.000000     0.000000     1.000000     0.000000     0.000000     0.000000     0.000000     0.000000
    2     1.000000   180.000000    -0.000000     1.000000     0.000000     0.000000    -0.500000     0.000000
 
 Subroutine IBZKPT returns following result:
 ===========================================
 
 Found     10 irreducible k-points:
 
 Following reciprocal coordinates:
            Coordinates               Weight
  0.000000  0.000000  0.000000      1.000000
  0.333333  0.000000  0.000000      2.000000
  0.000000  0.333333  0.000000      2.000000
  0.333333  0.333333  0.000000      4.000000
  0.000000  0.000000  0.333333      2.000000
  0.333333  0.000000  0.333333      2.000000
 -0.333333  0.000000  0.333333      2.000000
  0.000000  0.333333  0.333333      4.000000
  0.333333  0.333333  0.333333      4.000000
 -0.333333  0.333333  0.333333      4.000000
 
 Following cartesian coordinates:
            Coordinates               Weight
  0.000000  0.000000  0.000000      1.000000
  0.054586  0.000000  0.000000      2.000000
  0.000000  0.056220  0.000000      2.000000
  0.054586  0.056220  0.000000      4.000000
  0.000543  0.000000  0.042698      2.000000
  0.055129  0.000000  0.042698      2.000000
 -0.054044  0.000000  0.042698      2.000000
  0.000543  0.056220  0.042698      4.000000
  0.055129  0.056220  0.042698      4.000000
 -0.054044  0.056220  0.042698      4.000000
 
 TETIRR: Found     75 inequivalent tetrahedra from      162


--------------------------------------------------------------------------------------------------------




 Dimension of arrays:
   k-points           NKPTS =     10   k-points in BZ     NKDIM =     10   number of bands    NBANDS=     48
   number of dos      NEDOS =    301   number of ions     NIONS =     16
   non local maximal  LDIM  =      4   non local SUM 2l+1 LMDIM =      8
   total plane-waves  NPLWV =  90720
   max r-space proj   IRMAX =   3642   max aug-charges    IRDMAX=  10310
   dimension x,y,z NGX =    42 NGY =   40 NGZ =   54
   dimension x,y,z NGXF=    84 NGYF=   80 NGZF=  108
   support grid    NGXF=    84 NGYF=   80 NGZF=  108
   ions per type =               6   2   8
   NGX,Y,Z   is equivalent  to a cutoff of  11.43, 11.22, 11.50 a.u.
   NGXF,Y,Z  is equivalent  to a cutoff of  22.87, 22.43, 23.00 a.u.

 SYSTEM =  unknown system                          
 POSCAR =  Li6 P2 S8                               

 Startparameter for this run:
   NWRITE =      2    write-flag & timer
   PREC   = accura    normal or accurate (medium, high low for compatibility)
   ISTART =      0    job   : 0-new  1-cont  2-samecut
   ICHARG =      2    charge: 1-file 2-atom 10-const
   ISPIN  =      1    spin polarized calculation?
   LNONCOLLINEAR =      F non collinear calculations
   LSORBIT =      F    spin-orbit coupling
   INIWAV =      1    electr: 0-lowe 1-rand  2-diag
   LASPH  =      F    aspherical Exc in radial PAW
   METAGGA=      F    non-selfconsistent MetaGGA calc.

 Electronic Relaxation 1
   ENCUT  =  420.0 eV  30.87 Ry    5.56 a.u.  10.20  9.91 13.05*2*pi/ulx,y,z
   ENINI  =  420.0     initial cutoff
   ENAUG  =  628.9 eV  augmentation charge cutoff
   NELM   =    100;   NELMIN=  2; NELMDL= -5     # of ELM steps 
   EDIFF  = 0.2E-04   stopping-criterion for ELM
   LREAL  =      T    real-space projection
   NLSPLINE    = F    spline interpolate recip. space projectors
   LCOMPAT=      F    compatible to vasp.4.4
   GGA_COMPAT  = T    GGA compatible to vasp.4.4-vasp.4.6
   LMAXPAW     = -100 max onsite density
   LMAXMIX     =    2 max onsite mixed and CHGCAR
   VOSKOWN=      0    Vosko Wilk Nusair interpolation
   ROPT   =   -0.00025  -0.00025  -0.00025
 Ionic relaxation
   EDIFFG = 0.2E-03   stopping-criterion for IOM
   NSW    =    300    number of steps for IOM
   NBLOCK =      1;   KBLOCK =    300    inner block; outer block 
   IBRION =      2    ionic relax: 0-MD 1-quasi-New 2-CG
   NFREE  =      1    steps in history (QN), initial steepest desc. (CG)
   ISIF   =      3    stress and relaxation
   IWAVPR =     11    prediction:  0-non 1-charg 2-wave 3-comb
   ISYM   =      2    0-nonsym 1-usesym 2-fastsym
   LCORR  =      T    Harris-Foulkes like correction to forces

   POTIM  = 0.5000    time-step for ionic-motion
   TEIN   =    0.0    initial temperature
   TEBEG  =    0.0;   TEEND  =   0.0 temperature during run
   SMASS  =  -3.00    Nose mass-parameter (am)
   estimated Nose-frequenzy (Omega)   =  0.10E-29 period in steps =****** mass=  -0.852E-27a.u.
   SCALEE = 1.0000    scale energy and forces
   NPACO  =    256;   APACO  = 16.0  distance and # of slots for P.C.
   PSTRESS=    0.0 pullay stress

  Mass of Ions in am
   POMASS =   7.01 30.97 32.07
  Ionic Valenz
   ZVAL   =   3.00  5.00  6.00
  Atomic Wigner-Seitz radii
   RWIGS  =  -1.00 -1.00 -1.00
  virtual crystal weights 
   VCA    =   1.00  1.00  1.00
   NELECT =      76.0000    total number of electrons
   NUPDOWN=      -1.0000    fix difference up-down

 DOS related values:
   EMIN   =  10.00;   EMAX   =-10.00  energy-range for DOS
   EFERMI =   0.00
   ISMEAR =    -5;   SIGMA  =   0.20  broadening in eV -4-tet -1-fermi 0-gaus

 Electronic relaxation 2 (details)
   IALGO  =     68    algorithm
   LDIAG  =      T    sub-space diagonalisation (order eigenvalues)
   LSUBROT=      F    optimize rotation matrix (better conditioning)
   TURBO    =      0    0=normal 1=particle mesh
   IRESTART =      0    0=no restart 2=restart with 2 vectors
   NREBOOT  =      0    no. of reboots
   NMIN     =      0    reboot dimension
   EREF     =   0.00    reference energy to select bands
   IMIX   =      4    mixing-type and parameters
     AMIX     =   0.40;   BMIX     =  1.00
     AMIX_MAG =   1.60;   BMIX_MAG =  1.00
     AMIN     =   0.10
     WC   =   100.;   INIMIX=   1;  MIXPRE=   1;  MAXMIX= -45

 Intra band minimization:
   WEIMIN = 0.0010     energy-eigenvalue tresh-hold
   EBREAK =  0.10E-06  absolut break condition
   DEPER  =   0.30     relativ break condition  

   TIME   =   0.40     timestep for ELM

  volume/ion in A,a.u.               =      17.67       119.21
  Fermi-wavevector in a.u.,A,eV,Ry     =   1.056645  1.996769 15.190874  1.116498
  Thomas-Fermi vector in A             =   2.191888

 Write flags
   LWAVE        =      F    write WAVECAR
   LDOWNSAMPLE  =      F    k-point downsampling of WAVECAR
   LCHARG       =      F    write CHGCAR
   LVTOT        =      F    write LOCPOT, total local potential
   LVHAR        =      F    write LOCPOT, Hartree potential only
   LELF         =      F    write electronic localiz. function (ELF)
   LORBIT       =      0    0 simple, 1 ext, 2 COOP (PROOUT), +10 PAW based schemes


 Dipole corrections
   LMONO  =      F    monopole corrections only (constant potential shift)
   LDIPOL =      F    correct potential (dipole corrections)
   IDIPOL =      0    1-x, 2-y, 3-z, 4-all directions 
   EPSILON=  1.0000000 bulk dielectric constant

 Exchange correlation treatment:
   GGA     =    --    GGA type
   LEXCH   =     2    internal setting for exchange type
   VOSKOWN=      0    Vosko Wilk Nusair interpolation
   LHFCALC =     F    Hartree Fock is set to
   LHFONE  =     F    Hartree Fock one center treatment
   AEXX    =    0.0000 exact exchange contribution

 Linear response parameters
   LEPSILON=     F    determine dielectric tensor
   LRPA    =     F    only Hartree local field effects (RPA)
   LNABLA  =     F    use nabla operator in PAW spheres
   LVEL    =     F    velocity operator in full k-point grid
   LINTERFAST=   F  fast interpolation
   KINTER  =     0    interpolate to denser k-point grid
   CSHIFT  =0.1000    complex shift for real part using Kramers Kronig
   OMEGAMAX=  -1.0    maximum frequency
   DEG_THRESHOLD= 0.2000000E-02 threshold for treating states as degnerate
   RTIME   =   -0.100 relaxation time in fs
  (WPLASMAI=    0.000 imaginary part of plasma frequency in eV, 0.658/RTIME)
   DFIELD  = 0.0000000 0.0000000 0.0000000 field for delta impulse in time

 Orbital magnetization related:
   ORBITALMAG=     F  switch on orbital magnetization
   LCHIMAG   =     F  perturbation theory with respect to B field
   DQ        =  0.001000  dq finite difference perturbation B field
   LLRAUG    =     F  two centre corrections for induced B field



--------------------------------------------------------------------------------------------------------


 conjugate gradient relaxation of ions
 charge density and potential will be updated during run
 non-spin polarized calculation
 RMM-DIIS sequential band-by-band and
  variant of blocked Davidson during initial phase
 perform sub-space diagonalisation
    before iterative eigenvector-optimisation
 modified Broyden-mixing scheme, WC =      100.0
 initial mixing is a Kerker type mixing with AMIX =  0.4000 and BMIX =      1.0000
 Hartree-type preconditioning will be used
 using additional bands           10
 real space projection scheme for non local part
 use partial core corrections
 calculate Harris-corrections to forces   (improved forces if not selfconsistent)
 use of overlap-Matrix (Vanderbilt PP)
 Fermi weights with tetrahedron method with Bloechl corrections


--------------------------------------------------------------------------------------------------------


  energy-cutoff  :      420.00
  volume of cell :      282.65
      direct lattice vectors                 reciprocal lattice vectors
     6.106539014  0.000000000 -0.077590770     0.163758882  0.000000000  0.000000000
     0.000000000  5.929061742  0.000000000    -0.000000000  0.168660750  0.000000000
     0.000000000  0.000000000  7.806748750     0.001627589 -0.000000000  0.128094298

  length of vectors
     6.107031935  5.929061742  7.806748750     0.163758882  0.168660750  0.128104638



 k-points in units of 2pi/SCALE and weight: Automatic mesh                          
   0.00000000  0.00000000  0.00000000       0.037
   0.05458629  0.00000000  0.00000000       0.074
   0.00000000  0.05622025  0.00000000       0.074
   0.05458629  0.05622025  0.00000000       0.148
   0.00054253  0.00000000  0.04269810       0.074
   0.05512882  0.00000000  0.04269810       0.074
  -0.05404376  0.00000000  0.04269810       0.074
   0.00054253  0.05622025  0.04269810       0.148
   0.05512882  0.05622025  0.04269810       0.148
  -0.05404376  0.05622025  0.04269810       0.148

 k-points in reciprocal lattice and weights: Automatic mesh                          
   0.00000000  0.00000000  0.00000000       0.037
   0.33333333  0.00000000  0.00000000       0.074
   0.00000000  0.33333333  0.00000000       0.074
   0.33333333  0.33333333  0.00000000       0.148
   0.00000000  0.00000000  0.33333333       0.074
   0.33333333  0.00000000  0.33333333       0.074
  -0.33333333  0.00000000  0.33333333       0.074
   0.00000000  0.33333333  0.33333333       0.148
   0.33333333  0.33333333  0.33333333       0.148
  -0.33333333  0.33333333  0.33333333       0.148

 position of ions in fractional coordinates (direct lattice) 
   0.78432728  0.35848886  0.98841593
   0.21567272  0.85848886  0.01158407
   0.51349660  0.78926674  0.23274861
   0.48650340  0.28926674  0.76725139
   0.83413635  0.34785905  0.43018052
   0.16586365  0.84785905  0.56981948
   0.27217711  0.34073283  0.25971856
   0.72782289  0.84073283  0.74028144
   0.17674149  0.02788142  0.33422294
   0.11379863  0.42619023  0.03852561
   0.60162541  0.36352420  0.22057390
   0.20249477  0.58869730  0.43164958
   0.82325851  0.52788142  0.66577706
   0.88620137  0.92619023  0.96147439
   0.39837459  0.86352420  0.77942610
   0.79750523  0.08869730  0.56835042

 position of ions in cartesian coordinates  (Angst):
   4.78952511  2.12550259  7.65545831
   1.31701390  5.09003346  0.07369967
   3.13568702  4.67961123  1.77716734
   2.97085199  1.71508036  5.95199064
   5.09368614  2.06247779  3.29358997
   1.01285287  5.02700866  4.43556801
   1.66206017  2.02022601  2.00643914
   4.44447884  4.98475688  5.72271884
   1.07927880  0.16531064  2.59548101
   0.69491579  2.52690820  0.29193003
   3.67384903  2.15535742  1.67528447
   1.23654221  3.49042263  3.35406806
   5.02726021  3.12984151  5.13367697
   5.41162322  5.49143907  7.43722795
   2.43268998  5.11988829  6.05387351
   4.86999680  0.52589176  4.37508992



--------------------------------------------------------------------------------------------------------


 k-point  1 :   0.0000 0.0000 0.0000  plane waves:    5509
 k-point  2 :   0.3333 0.0000 0.0000  plane waves:    5514
 k-point  3 :   0.0000 0.3333 0.0000  plane waves:    5520
 k-point  4 :   0.3333 0.3333 0.0000  plane waves:    5526
 k-point  5 :   0.0000 0.0000 0.3333  plane waves:    5522
 k-point  6 :   0.3333 0.0000 0.3333  plane waves:    5515
 k-point  7 :  -0.3333 0.0000 0.3333  plane waves:    5519
 k-point  8 :   0.0000 0.3333 0.3333  plane waves:    5525
 k-point  9 :   0.3333 0.3333 0.3333  plane waves:    5533
 k-point 10 :  -0.3333 0.3333 0.3333  plane waves:    5536

 maximum and minimum number of plane-waves per node :       355      323

 maximum number of plane-waves:      5536
 maximum index in each direction: 
   IXMAX=   10   IYMAX=    9   IZMAX=   13
   IXMIN=  -10   IYMIN=  -10   IZMIN=  -13


 real space projection operators:
  total allocation   :       2704.47 KBytes
  max/ min on nodes  :        189.41        137.74


 parallel 3D FFT for wavefunctions:
    minimum data exchange during FFTs selected (reduces bandwidth)
 parallel 3D FFT for charge:
    minimum data exchange during FFTs selected (reduces bandwidth)


 total amount of memory used by VASP MPI-rank0    34032. kBytes
=======================================================================

   base      :      30000. kBytes
   nonlr-proj:       1215. kBytes
   fftplans  :        741. kBytes
   grid      :       1382. kBytes
   one-center:          3. kBytes
   wavefun   :        691. kBytes

     INWAV:  cpu time    0.0000: real time    0.0000
 Broyden mixing: mesh for mixing (old mesh)
   NGX = 21   NGY = 19   NGZ = 27
  (NGX  = 84   NGY  = 80   NGZ  =108)
  gives a total of  10773 points

 initial charge density was supplied:
 charge density of overlapping atoms calculated
 number of electron      76.0000000 magnetization 
 keeping initial charge density in first step


--------------------------------------------------------------------------------------------------------


 Maximum index for non-local projection operator          397
 Maximum index for augmentation-charges          524 (set IRDMAX)


--------------------------------------------------------------------------------------------------------


 First call to EWALD:  gamma=   0.270
 Maximum number of real-space cells 3x 3x 2
 Maximum number of reciprocal cells 3x 3x 3

    FEWALD:  cpu time    0.0007: real time    0.0007


--------------------------------------- Iteration      1(   1)  ---------------------------------------


    POTLOK:  cpu time    0.0090: real time    0.0316
    SETDIJ:  cpu time    0.0015: real time    0.0016
     EDDAV:  cpu time    0.3683: real time    0.3710
 BZINTS: Fermi energy: 15.045894; 76.000000 electrons
         Band energy:-113.728193;  BLOECHL correction: -0.142905
       DOS:  cpu time    0.0057: real time    0.0059
    --------------------------------------------
      LOOP:  cpu time    0.3846: real time    0.4102

 eigenvalue-minimisations  :   960
 total energy-change (2. order) : 0.5093289E+03  (-0.2851302E+04)
 number of electron      76.0000000 magnetization 
 augmentation part       76.0000000 magnetization 

 Free energy of the ion-electron system (eV)
  ---------------------------------------------------
  alpha Z        PSCENC =        69.81373687
  Ewald energy   TEWEN  =     -2670.85630511
  -Hartree energ DENC   =      -680.98217716
  -exchange      EXHF   =         0.00000000
  -V(xc)+E(xc)   XCENC  =       182.89168962
  PAW double counting   =      2494.22442938    -2541.12215007
  entropy T*S    EENTRO =         0.00000000
  eigenvalues    EBANDS =      -113.72819332
  atomic energy  EATOM  =      3769.08782378
  Solvation  Ediel_sol  =         0.00000000
  ---------------------------------------------------
  free energy    TOTEN  =       509.32885399 eV

  energy without entropy =      509.32885399  energy(sigma->0) =      509.32885399


--------------------------------------------------------------------------------------------------------




--------------------------------------- Iteration      1(   2)  ---------------------------------------


     EDDAV:  cpu time    0.3608: real time    0.3638
 BZINTS: Fermi energy:  5.300071; 76.000000 electrons
         Band energy:-625.474890;  BLOECHL correction:  0.000000
       DOS:  cpu time    0.0011: real time    0.0011
    --------------------------------------------
      LOOP:  cpu time    0.3619: real time    0.3649

 eigenvalue-minimisations  :  1136
 total energy-change (2. order) :-0.5117467E+03  (-0.4866034E+03)
 number of electron      76.0000000 magnetization 
 augmentation part       76.0000000 magnetization 

 Free energy of the ion-electron system (eV)
  ---------------------------------------------------
  alpha Z        PSCENC =        69.81373687
  Ewald energy   TEWEN  =     -2670.85630511
  -Hartree energ DENC   =      -680.98217716
  -exchange      EXHF   =         0.00000000
  -V(xc)+E(xc)   XCENC  =       182.89168962
  PAW double counting   =      2494.22442938    -2541.12215007
  entropy T*S    EENTRO =         0.00000000
  eigenvalues    EBANDS =      -625.47489036
  atomic energy  EATOM  =      3769.08782378
  Solvation  Ediel_sol  =         0.00000000
  ---------------------------------------------------
  free energy    TOTEN  =        -2.41784305 eV

  energy without entropy =       -2.41784305  energy(sigma->0) =       -2.41784305


--------------------------------------------------------------------------------------------------------




--------------------------------------- Iteration      1(   3)  ---------------------------------------


     EDDAV:  cpu time    0.4087: real time    0.4118
 BZINTS: Fermi energy:  2.760595; 76.000000 electrons
         Band energy:-689.346114;  BLOECHL correction:  0.000000
       DOS:  cpu time    0.0010: real time    0.0010
    --------------------------------------------
      LOOP:  cpu time    0.4097: real time    0.4128

 eigenvalue-minimisations  :  1352
 total energy-change (2. order) :-0.6387122E+02  (-0.6325050E+02)
 number of electron      76.0000000 magnetization 
 augmentation part       76.0000000 magnetization 

 Free energy of the ion-electron system (eV)
  ---------------------------------------------------
  alpha Z        PSCENC =        69.81373687
  Ewald energy   TEWEN  =     -2670.85630511
  -Hartree energ DENC   =      -680.98217716
  -exchange      EXHF   =         0.00000000
  -V(xc)+E(xc)   XCENC  =       182.89168962
  PAW double counting   =      2494.22442938    -2541.12215007
  entropy T*S    EENTRO =         0.00000000
  eigenvalues    EBANDS =      -689.34611401
  atomic energy  EATOM  =      3769.08782378
  Solvation  Ediel_sol  =         0.00000000
  ---------------------------------------------------
  free energy    TOTEN  =       -66.28906669 eV

  energy without entropy =      -66.28906669  energy(sigma->0) =      -66.28906669


--------------------------------------------------------------------------------------------------------




--------------------------------------- Iteration      1(   4)  ---------------------------------------


     EDDAV:  cpu time    0.5161: real time    0.5222
 BZINTS: Fermi energy:  2.658286; 76.000000 electrons
         Band energy:-696.762614;  BLOECHL correction:  0.000000
       DOS:  cpu time    0.0009: real time    0.0009
    --------------------------------------------
      LOOP:  cpu time    0.5169: real time    0.5231

 eigenvalue-minimisations  :  1800
 total energy-change (2. order) :-0.7416500E+01  (-0.7367629E+01)
 number of electron      76.0000000 magnetization 
 augmentation part       76.0000000 magnetization 

 Free energy of the ion-electron system (eV)
  ---------------------------------------------------
  alpha Z        PSCENC =        69.81373687
  Ewald energy   TEWEN  =     -2670.85630511
  -Hartree energ DENC   =      -680.98217716
  -exchange      EXHF   =         0.00000000
  -V(xc)+E(xc)   XCENC  =       182.89168962
  PAW double counting   =      2494.22442938    -2541.12215007
  entropy T*S    EENTRO =         0.00000000
  eigenvalues    EBANDS =      -696.76261374
  atomic energy  EATOM  =      3769.08782378
  Solvation  Ediel_sol  =         0.00000000
  ---------------------------------------------------
  free energy    TOTEN  =       -73.70556643 eV

  energy without entropy =      -73.70556643  energy(sigma->0) =      -73.70556643


--------------------------------------------------------------------------------------------------------




--------------------------------------- Iteration      1(   5)  ---------------------------------------


     EDDAV:  cpu time    0.4387: real time    0.4420
 BZINTS: Fermi energy:  2.701677; 76.000000 electrons
         Band energy:-697.588072;  BLOECHL correction:  0.000000
       DOS:  cpu time    0.0010: real time    0.0010
    CHARGE:  cpu time    0.0293: real time    0.0297
    MIXING:  cpu time    0.0004: real time    0.0004
    --------------------------------------------
      LOOP:  cpu time    0.4694: real time    0.4732

 eigenvalue-minimisations  :  1440
 total energy-change (2. order) :-0.8254584E+00  (-0.8252394E+00)
 number of electron      75.9999945 magnetization 
 augmentation part       -1.9644576 magnetization 

 Broyden mixing:
  rms(total) = 0.24333E+01    rms(broyden)= 0.24328E+01
  rms(prec ) = 0.26951E+01
  weight for this iteration     100.00

 Free energy of the ion-electron system (eV)
  ---------------------------------------------------
  alpha Z        PSCENC =        69.81373687
  Ewald energy   TEWEN  =     -2670.85630511
  -Hartree energ DENC   =      -680.98217716
  -exchange      EXHF   =         0.00000000
  -V(xc)+E(xc)   XCENC  =       182.89168962
  PAW double counting   =      2494.22442938    -2541.12215007
  entropy T*S    EENTRO =         0.00000000
  eigenvalues    EBANDS =      -697.58807214
  atomic energy  EATOM  =      3769.08782378
  Solvation  Ediel_sol  =         0.00000000
  ---------------------------------------------------
  free energy    TOTEN  =       -74.53102483 eV

  energy without entropy =      -74.53102483  energy(sigma->0) =      -74.53102483


--------------------------------------------------------------------------------------------------------




--------------------------------------- Iteration      1(   6)  ---------------------------------------


    POTLOK:  cpu time    0.0050: real time    0.0054
    SETDIJ:  cpu time    0.0012: real time    0.0012
    EDDIAG:  cpu time    0.0960: real time    0.0965
  RMM-DIIS:  cpu time    0.1419: real time    0.1429
    ORTHCH:  cpu time    0.0057: real time    0.0057
 BZINTS: Fermi energy:  3.176566; 76.000000 electrons
         Band energy:-675.155582;  BLOECHL correction:  0.000000
       DOS:  cpu time    0.0011: real time    0.0011
    CHARGE:  cpu time    0.0272: real time    0.0276
    MIXING:  cpu time    0.0005: real time    0.0005
    --------------------------------------------
      LOOP:  cpu time    0.2785: real time    0.2809

 eigenvalue-minimisations  :   973
 total energy-change (2. order) : 0.2525088E+01  (-0.8874682E+00)
 number of electron      75.9999946 magnetization 
 augmentation part       -1.9040791 magnetization 

 Broyden mixing:
  rms(total) = 0.16179E+01    rms(broyden)= 0.16179E+01
  rms(prec ) = 0.16771E+01
  weight for this iteration     100.00

 eigenvalues of (default mixing * dielectric matrix)
  average eigenvalue GAMMA=   2.4303
  2.4303

 Free energy of the ion-electron system (eV)
  ---------------------------------------------------
  alpha Z        PSCENC =        69.81373687
  Ewald energy   TEWEN  =     -2670.85630511
  -Hartree energ DENC   =      -701.14657311
  -exchange      EXHF   =         0.00000000
  -V(xc)+E(xc)   XCENC  =       184.79970693
  PAW double counting   =      4080.92424829    -4129.47299231
  entropy T*S    EENTRO =         0.00000000
  eigenvalues    EBANDS =      -675.15558239
  atomic energy  EATOM  =      3769.08782378
  Solvation  Ediel_sol  =         0.00000000
  ---------------------------------------------------
  free energy    TOTEN  =       -72.00593706 eV

  energy without entropy =      -72.00593706  energy(sigma->0) =      -72.00593706


--------------------------------------------------------------------------------------------------------




--------------------------------------- Iteration      1(   7)  ---------------------------------------


    POTLOK:  cpu time    0.0048: real time    0.0051
    SETDIJ:  cpu time    0.0013: real time    0.0013
    EDDIAG:  cpu time    0.0953: real time    0.0960
  RMM-DIIS:  cpu time    0.1517: real time    0.1528
    ORTHCH:  cpu time    0.0050: real time    0.0050
 BZINTS: Fermi energy:  3.484067; 76.000000 electrons
         Band energy:-656.746811;  BLOECHL correction:  0.000000
       DOS:  cpu time    0.0010: real time    0.0010
    CHARGE:  cpu time    0.0269: real time    0.0273
    MIXING:  cpu time    0.0008: real time    0.0008
    --------------------------------------------
      LOOP:  cpu time    0.2867: real time    0.2893

 eigenvalue-minimisations  :  1058
 total energy-change (2. order) : 0.4876267E+00  (-0.2841468E+00)
 number of electron      75.9999946 magnetization 
 augmentation part       -1.8593748 magnetization 

 Broyden mixing:
  rms(total) = 0.50667E+00    rms(broyden)= 0.50667E+00
  rms(prec ) = 0.53163E+00
  weight for this iteration     100.00

 eigenvalues of (default mixing * dielectric matrix)
  average eigenvalue GAMMA=   1.9178
  1.3550  2.4807

 Free energy of the ion-electron system (eV)
  ---------------------------------------------------
  alpha Z        PSCENC =        69.81373687
  Ewald energy   TEWEN  =     -2670.85630511
  -Hartree energ DENC   =      -719.57760130
  -exchange      EXHF   =         0.00000000
  -V(xc)+E(xc)   XCENC  =       186.53449980
  PAW double counting   =      6880.96821265    -6930.74186581
  entropy T*S    EENTRO =         0.00000000
  eigenvalues    EBANDS =      -656.74681123
  atomic energy  EATOM  =      3769.08782378
  Solvation  Ediel_sol  =         0.00000000
  ---------------------------------------------------
  free energy    TOTEN  =       -71.51831034 eV

  energy without entropy =      -71.51831034  energy(sigma->0) =      -71.51831034


--------------------------------------------------------------------------------------------------------




--------------------------------------- Iteration      1(   8)  ---------------------------------------


    POTLOK:  cpu time    0.0048: real time    0.0050
    SETDIJ:  cpu time    0.0013: real time    0.0013
    EDDIAG:  cpu time    0.0943: real time    0.0950
  RMM-DIIS:  cpu time    0.1707: real time    0.1719
    ORTHCH:  cpu time    0.0049: real time    0.0050
 BZINTS: Fermi energy:  3.450757; 76.000000 electrons
         Band energy:-655.384134;  BLOECHL correction:  0.000000
       DOS:  cpu time    0.0011: real time    0.0011
    CHARGE:  cpu time    0.0274: real time    0.0278
    MIXING:  cpu time    0.0005: real time    0.0005
    --------------------------------------------
      LOOP:  cpu time    0.3050: real time    0.3075

 eigenvalue-minimisations  :  1174
 total energy-change (2. order) : 0.7862990E-01  (-0.2992944E-01)
 number of electron      75.9999946 magnetization 
 augmentation part       -1.8821418 magnetization 

 Broyden mixing:
  rms(total) = 0.56657E-01    rms(broyden)= 0.56619E-01
  rms(prec ) = 0.73482E-01
  weight for this iteration     100.00

 eigenvalues of (default mixing * dielectric matrix)
  average eigenvalue GAMMA=   1.7013
  1.1296  2.2915  1.6828

 Free energy of the ion-electron system (eV)
  ---------------------------------------------------
  alpha Z        PSCENC =        69.81373687
  Ewald energy   TEWEN  =     -2670.85630511
  -Hartree energ DENC   =      -721.04452799
  -exchange      EXHF   =         0.00000000
  -V(xc)+E(xc)   XCENC  =       186.72957355
  PAW double counting   =      7978.31879902    -8028.10464683
  entropy T*S    EENTRO =         0.00000000
  eigenvalues    EBANDS =      -655.38413372
  atomic energy  EATOM  =      3769.08782378
  Solvation  Ediel_sol  =         0.00000000
  ---------------------------------------------------
  free energy    TOTEN  =       -71.43968044 eV

  energy without entropy =      -71.43968044  energy(sigma->0) =      -71.43968044


--------------------------------------------------------------------------------------------------------




--------------------------------------- Iteration      1(   9)  ---------------------------------------


    POTLOK:  cpu time    0.0053: real time    0.0055
    SETDIJ:  cpu time    0.0013: real time    0.0013
    EDDIAG:  cpu time    0.0946: real time    0.0952
  RMM-DIIS:  cpu time    0.1804: real time    0.1817
    ORTHCH:  cpu time    0.0050: real time    0.0051
 BZINTS: Fermi energy:  3.439697; 76.000000 electrons
         Band energy:-656.726902;  BLOECHL correction:  0.000000
       DOS:  cpu time    0.0010: real time    0.0010
    CHARGE:  cpu time    0.0278: real time    0.0282
    MIXING:  cpu time    0.0005: real time    0.0005
    --------------------------------------------
      LOOP:  cpu time    0.3159: real time    0.3186

 eigenvalue-minimisations  :  1286
 total energy-change (2. order) : 0.6050522E-02  (-0.4478922E-02)
 number of electron      75.9999946 magnetization 
 augmentation part       -1.8999684 magnetization 

 Broyden mixing:
  rms(total) = 0.26087E-01    rms(broyden)= 0.26062E-01
  rms(prec ) = 0.28584E-01
  weight for this iteration     100.00

 eigenvalues of (default mixing * dielectric matrix)
  average eigenvalue GAMMA=   1.7780
  2.2644  2.2644  1.2916  1.2916

 Free energy of the ion-electron system (eV)
  ---------------------------------------------------
  alpha Z        PSCENC =        69.81373687
  Ewald energy   TEWEN  =     -2670.85630511
  -Hartree energ DENC   =      -719.68108995
  -exchange      EXHF   =         0.00000000
  -V(xc)+E(xc)   XCENC  =       186.64195791
  PAW double counting   =      7852.99449959    -7902.70735144
  entropy T*S    EENTRO =         0.00000000
  eigenvalues    EBANDS =      -656.72690157
  atomic energy  EATOM  =      3769.08782378
  Solvation  Ediel_sol  =         0.00000000
  ---------------------------------------------------
  free energy    TOTEN  =       -71.43362992 eV

  energy without entropy =      -71.43362992  energy(sigma->0) =      -71.43362992


--------------------------------------------------------------------------------------------------------




--------------------------------------- Iteration      1(  10)  ---------------------------------------


    POTLOK:  cpu time    0.0048: real time    0.0050
    SETDIJ:  cpu time    0.0012: real time    0.0012
    EDDIAG:  cpu time    0.0986: real time    0.0993
  RMM-DIIS:  cpu time    0.2021: real time    0.2051
    ORTHCH:  cpu time    0.0051: real time    0.0051
 BZINTS: Fermi energy:  3.436142; 76.000000 electrons
         Band energy:-656.703461;  BLOECHL correction:  0.000000
       DOS:  cpu time    0.0010: real time    0.0010
    CHARGE:  cpu time    0.0277: real time    0.0281
    MIXING:  cpu time    0.0006: real time    0.0006
    --------------------------------------------
      LOOP:  cpu time    0.3411: real time    0.3456

 eigenvalue-minimisations  :  1466
 total energy-change (2. order) :-0.6138046E-03  (-0.1091690E-02)
 number of electron      75.9999946 magnetization 
 augmentation part       -1.9059241 magnetization 

 Broyden mixing:
  rms(total) = 0.13384E-01    rms(broyden)= 0.13363E-01
  rms(prec ) = 0.14614E-01
  weight for this iteration     100.00

 eigenvalues of (default mixing * dielectric matrix)
  average eigenvalue GAMMA=   1.8198
  2.5523  2.5523  1.8358  0.9100  1.2483

 Free energy of the ion-electron system (eV)
  ---------------------------------------------------
  alpha Z        PSCENC =        69.81373687
  Ewald energy   TEWEN  =     -2670.85630511
  -Hartree energ DENC   =      -719.71004116
  -exchange      EXHF   =         0.00000000
  -V(xc)+E(xc)   XCENC  =       186.64575928
  PAW double counting   =      7819.52231037    -7869.23406702
  entropy T*S    EENTRO =         0.00000000
  eigenvalues    EBANDS =      -656.70346074
  atomic energy  EATOM  =      3769.08782378
  Solvation  Ediel_sol  =         0.00000000
  ---------------------------------------------------
  free energy    TOTEN  =       -71.43424372 eV

  energy without entropy =      -71.43424372  energy(sigma->0) =      -71.43424372


--------------------------------------------------------------------------------------------------------




--------------------------------------- Iteration      1(  11)  ---------------------------------------


    POTLOK:  cpu time    0.0053: real time    0.0056
    SETDIJ:  cpu time    0.0013: real time    0.0013
    EDDIAG:  cpu time    0.0952: real time    0.0959
  RMM-DIIS:  cpu time    0.1940: real time    0.1955
    ORTHCH:  cpu time    0.0050: real time    0.0050
 BZINTS: Fermi energy:  3.433337; 76.000000 electrons
         Band energy:-656.441148;  BLOECHL correction:  0.000000
       DOS:  cpu time    0.0010: real time    0.0010
    CHARGE:  cpu time    0.0276: real time    0.0280
    MIXING:  cpu time    0.0006: real time    0.0006
    --------------------------------------------
      LOOP:  cpu time    0.3299: real time    0.3329

 eigenvalue-minimisations  :  1382
 total energy-change (2. order) :-0.5264205E-03  (-0.5302312E-03)
 number of electron      75.9999946 magnetization 
 augmentation part       -1.9077814 magnetization 

 Broyden mixing:
  rms(total) = 0.33922E-02    rms(broyden)= 0.33522E-02
  rms(prec ) = 0.43757E-02
  weight for this iteration     100.00

 eigenvalues of (default mixing * dielectric matrix)
  average eigenvalue GAMMA=   1.7269
  2.5477  2.5477  1.0208  1.2277  1.5088  1.5088

 Free energy of the ion-electron system (eV)
  ---------------------------------------------------
  alpha Z        PSCENC =        69.81373687
  Ewald energy   TEWEN  =     -2670.85630511
  -Hartree energ DENC   =      -719.99073225
  -exchange      EXHF   =         0.00000000
  -V(xc)+E(xc)   XCENC  =       186.66787408
  PAW double counting   =      7788.96896656    -7838.68498587
  entropy T*S    EENTRO =         0.00000000
  eigenvalues    EBANDS =      -656.44114820
  atomic energy  EATOM  =      3769.08782378
  Solvation  Ediel_sol  =         0.00000000
  ---------------------------------------------------
  free energy    TOTEN  =       -71.43477014 eV

  energy without entropy =      -71.43477014  energy(sigma->0) =      -71.43477014


--------------------------------------------------------------------------------------------------------




--------------------------------------- Iteration      1(  12)  ---------------------------------------


    POTLOK:  cpu time    0.0048: real time    0.0051
    SETDIJ:  cpu time    0.0013: real time    0.0013
    EDDIAG:  cpu time    0.0953: real time    0.0960
  RMM-DIIS:  cpu time    0.1879: real time    0.1891
    ORTHCH:  cpu time    0.0050: real time    0.0050
 BZINTS: Fermi energy:  3.427726; 76.000000 electrons
         Band energy:-656.471618;  BLOECHL correction:  0.000000
       DOS:  cpu time    0.0010: real time    0.0010
    CHARGE:  cpu time    0.0281: real time    0.0286
    MIXING:  cpu time    0.0008: real time    0.0008
    --------------------------------------------
      LOOP:  cpu time    0.3241: real time    0.3268

 eigenvalue-minimisations  :  1336
 total energy-change (2. order) :-0.2409602E-03  (-0.2677376E-03)
 number of electron      75.9999946 magnetization 
 augmentation part       -1.9100234 magnetization 

 Broyden mixing:
  rms(total) = 0.22457E-02    rms(broyden)= 0.22178E-02
  rms(prec ) = 0.27827E-02
  weight for this iteration     100.00

 eigenvalues of (default mixing * dielectric matrix)
  average eigenvalue GAMMA=   1.6139
  2.5538  2.4908  1.6679  1.6679  1.1989  1.0170  0.7007

 Free energy of the ion-electron system (eV)
  ---------------------------------------------------
  alpha Z        PSCENC =        69.81373687
  Ewald energy   TEWEN  =     -2670.85630511
  -Hartree energ DENC   =      -719.97229689
  -exchange      EXHF   =         0.00000000
  -V(xc)+E(xc)   XCENC  =       186.66908084
  PAW double counting   =      7796.02837695    -7845.73380913
  entropy T*S    EENTRO =         0.00000000
  eigenvalues    EBANDS =      -656.47161841
  atomic energy  EATOM  =      3769.08782378
  Solvation  Ediel_sol  =         0.00000000
  ---------------------------------------------------
  free energy    TOTEN  =       -71.43501110 eV

  energy without entropy =      -71.43501110  energy(sigma->0) =      -71.43501110


--------------------------------------------------------------------------------------------------------




--------------------------------------- Iteration      1(  13)  ---------------------------------------


    POTLOK:  cpu time    0.0046: real time    0.0049
    SETDIJ:  cpu time    0.0013: real time    0.0013
    EDDIAG:  cpu time    0.0936: real time    0.0941
  RMM-DIIS:  cpu time    0.1673: real time    0.1683
    ORTHCH:  cpu time    0.0055: real time    0.0055
 BZINTS: Fermi energy:  3.422838; 76.000000 electrons
         Band energy:-656.428753;  BLOECHL correction:  0.000000
       DOS:  cpu time    0.0010: real time    0.0010
    CHARGE:  cpu time    0.0282: real time    0.0287
    MIXING:  cpu time    0.0006: real time    0.0007
    --------------------------------------------
      LOOP:  cpu time    0.3021: real time    0.3045

 eigenvalue-minimisations  :  1069
 total energy-change (2. order) :-0.1370902E-03  (-0.1474762E-03)
 number of electron      75.9999947 magnetization 
 augmentation part       -1.9109686 magnetization 

 Broyden mixing:
  rms(total) = 0.17272E-02    rms(broyden)= 0.17089E-02
  rms(prec ) = 0.20587E-02
  weight for this iteration     100.00

 eigenvalues of (default mixing * dielectric matrix)
  average eigenvalue GAMMA=   1.5573
  2.5759  2.5759  1.7138  1.7138  1.1955  1.0440  0.8197  0.8197

 Free energy of the ion-electron system (eV)
  ---------------------------------------------------
  alpha Z        PSCENC =        69.81373687
  Ewald energy   TEWEN  =     -2670.85630511
  -Hartree energ DENC   =      -720.02455818
  -exchange      EXHF   =         0.00000000
  -V(xc)+E(xc)   XCENC  =       186.67303001
  PAW double counting   =      7795.58763505    -7845.28775798
  entropy T*S    EENTRO =         0.00000000
  eigenvalues    EBANDS =      -656.42875263
  atomic energy  EATOM  =      3769.08782378
  Solvation  Ediel_sol  =         0.00000000
  ---------------------------------------------------
  free energy    TOTEN  =       -71.43514819 eV

  energy without entropy =      -71.43514819  energy(sigma->0) =      -71.43514819


--------------------------------------------------------------------------------------------------------




--------------------------------------- Iteration      1(  14)  ---------------------------------------


    POTLOK:  cpu time    0.0050: real time    0.0052
    SETDIJ:  cpu time    0.0013: real time    0.0013
    EDDIAG:  cpu time    0.0944: real time    0.0950
  RMM-DIIS:  cpu time    0.1756: real time    0.1767
    ORTHCH:  cpu time    0.0058: real time    0.0058
 BZINTS: Fermi energy:  3.464150; 76.000000 electrons
         Band energy:-656.431519;  BLOECHL correction:  0.000000
       DOS:  cpu time    0.0009: real time    0.0009
    CHARGE:  cpu time    0.0272: real time    0.0276
    MIXING:  cpu time    0.0008: real time    0.0008
    --------------------------------------------
      LOOP:  cpu time    0.3108: real time    0.3133

 eigenvalue-minimisations  :  1193
 total energy-change (2. order) :-0.8017065E-04  (-0.8514298E-04)
 number of electron      75.9999947 magnetization 
 augmentation part       -1.9117574 magnetization 

 Broyden mixing:
  rms(total) = 0.16795E-02    rms(broyden)= 0.16695E-02
  rms(prec ) = 0.20499E-02
  weight for this iteration     100.00

 eigenvalues of (default mixing * dielectric matrix)
  average eigenvalue GAMMA=   1.5097
  1.2365  2.4882  2.4882  2.0846  1.5253  1.1216  1.1216  0.7608  0.7608

 Free energy of the ion-electron system (eV)
  ---------------------------------------------------
  alpha Z        PSCENC =        69.81373687
  Ewald energy   TEWEN  =     -2670.85630511
  -Hartree energ DENC   =      -720.02586363
  -exchange      EXHF   =         0.00000000
  -V(xc)+E(xc)   XCENC  =       186.67337474
  PAW double counting   =      7794.93751029    -7844.63398581
  entropy T*S    EENTRO =         0.00000000
  eigenvalues    EBANDS =      -656.43151950
  atomic energy  EATOM  =      3769.08782378
  Solvation  Ediel_sol  =         0.00000000
  ---------------------------------------------------
  free energy    TOTEN  =       -71.43522836 eV

  energy without entropy =      -71.43522836  energy(sigma->0) =      -71.43522836


--------------------------------------------------------------------------------------------------------




--------------------------------------- Iteration      1(  15)  ---------------------------------------


    POTLOK:  cpu time    0.0045: real time    0.0049
    SETDIJ:  cpu time    0.0013: real time    0.0013
    EDDIAG:  cpu time    0.0939: real time    0.0945
  RMM-DIIS:  cpu time    0.1412: real time    0.1421
    ORTHCH:  cpu time    0.0063: real time    0.0063
 BZINTS: Fermi energy:  3.459189; 76.000000 electrons
         Band energy:-656.420575;  BLOECHL correction:  0.000000
       DOS:  cpu time    0.0009: real time    0.0009
    CHARGE:  cpu time    0.0274: real time    0.0278
    MIXING:  cpu time    0.0008: real time    0.0008
    --------------------------------------------
      LOOP:  cpu time    0.2763: real time    0.2786

 eigenvalue-minimisations  :   899
 total energy-change (2. order) :-0.4066757E-04  (-0.4216393E-04)
 number of electron      75.9999947 magnetization 
 augmentation part       -1.9121976 magnetization 

 Broyden mixing:
  rms(total) = 0.23502E-02    rms(broyden)= 0.23471E-02
  rms(prec ) = 0.29187E-02
  weight for this iteration     100.00

 eigenvalues of (default mixing * dielectric matrix)
  average eigenvalue GAMMA=   1.5571
  2.8449  2.5019  2.5019  1.5025  1.5025  1.0134  1.0634  1.0634  0.7885  0.7885

 Free energy of the ion-electron system (eV)
  ---------------------------------------------------
  alpha Z        PSCENC =        69.81373687
  Ewald energy   TEWEN  =     -2670.85630511
  -Hartree energ DENC   =      -720.03331592
  -exchange      EXHF   =         0.00000000
  -V(xc)+E(xc)   XCENC  =       186.67337661
  PAW double counting   =      7794.74242773    -7844.44243756
  entropy T*S    EENTRO =         0.00000000
  eigenvalues    EBANDS =      -656.42057543
  atomic energy  EATOM  =      3769.08782378
  Solvation  Ediel_sol  =         0.00000000
  ---------------------------------------------------
  free energy    TOTEN  =       -71.43526903 eV

  energy without entropy =      -71.43526903  energy(sigma->0) =      -71.43526903


--------------------------------------------------------------------------------------------------------




--------------------------------------- Iteration      1(  16)  ---------------------------------------


    POTLOK:  cpu time    0.0046: real time    0.0049
    SETDIJ:  cpu time    0.0013: real time    0.0013
    EDDIAG:  cpu time    0.0932: real time    0.0938
  RMM-DIIS:  cpu time    0.1452: real time    0.1462
    ORTHCH:  cpu time    0.0060: real time    0.0060
 BZINTS: Fermi energy:  3.455206; 76.000000 electrons
         Band energy:-656.421441;  BLOECHL correction:  0.000000
       DOS:  cpu time    0.0009: real time    0.0009
    CHARGE:  cpu time    0.0281: real time    0.0299
    MIXING:  cpu time    0.0008: real time    0.0008
    --------------------------------------------
      LOOP:  cpu time    0.2802: real time    0.2837

 eigenvalue-minimisations  :   922
 total energy-change (2. order) :-0.1512609E-04  (-0.2253192E-04)
 number of electron      75.9999947 magnetization 
 augmentation part       -1.9124857 magnetization 

 Broyden mixing:
  rms(total) = 0.67629E-03    rms(broyden)= 0.67337E-03
  rms(prec ) = 0.95611E-03
  weight for this iteration     100.00

 eigenvalues of (default mixing * dielectric matrix)
  average eigenvalue GAMMA=   1.5067
  2.9589  2.5018  2.5018  1.5906  1.5906  1.1923  1.1923  0.9269  0.8326  0.6432
  0.6432

 Free energy of the ion-electron system (eV)
  ---------------------------------------------------
  alpha Z        PSCENC =        69.81373687
  Ewald energy   TEWEN  =     -2670.85630511
  -Hartree energ DENC   =      -720.05316965
  -exchange      EXHF   =         0.00000000
  -V(xc)+E(xc)   XCENC  =       186.67677463
  PAW double counting   =      7795.83698704    -7845.51969089
  entropy T*S    EENTRO =         0.00000000
  eigenvalues    EBANDS =      -656.42144083
  atomic energy  EATOM  =      3769.08782378
  Solvation  Ediel_sol  =         0.00000000
  ---------------------------------------------------
  free energy    TOTEN  =       -71.43528416 eV

  energy without entropy =      -71.43528416  energy(sigma->0) =      -71.43528416


--------------------------------------------------------------------------------------------------------




--------------------------------------- Iteration      1(  17)  ---------------------------------------


    POTLOK:  cpu time    0.0046: real time    0.0048
    SETDIJ:  cpu time    0.0014: real time    0.0014
    EDDIAG:  cpu time    0.0930: real time    0.0936
  RMM-DIIS:  cpu time    0.1551: real time    0.1561
    ORTHCH:  cpu time    0.0054: real time    0.0055
 BZINTS: Fermi energy:  3.450776; 76.000000 electrons
         Band energy:-656.426211;  BLOECHL correction:  0.000000
       DOS:  cpu time    0.0008: real time    0.0008
    --------------------------------------------
      LOOP:  cpu time    0.2603: real time    0.2622

 eigenvalue-minimisations  :  1009
 total energy-change (2. order) :-0.1412066E-04  (-0.1820481E-04)
 number of electron      75.9999947 magnetization 
 augmentation part       -1.9124857 magnetization 

 Free energy of the ion-electron system (eV)
  ---------------------------------------------------
  alpha Z        PSCENC =        69.81373687
  Ewald energy   TEWEN  =     -2670.85630511
  -Hartree energ DENC   =      -720.05067478
  -exchange      EXHF   =         0.00000000
  -V(xc)+E(xc)   XCENC  =       186.67691563
  PAW double counting   =      7795.92675015    -7845.60733360
  entropy T*S    EENTRO =         0.00000000
  eigenvalues    EBANDS =      -656.42621123
  atomic energy  EATOM  =      3769.08782378
  Solvation  Ediel_sol  =         0.00000000
  ---------------------------------------------------
  free energy    TOTEN  =       -71.43529828 eV

  energy without entropy =      -71.43529828  energy(sigma->0) =      -71.43529828


--------------------------------------------------------------------------------------------------------




 average (electrostatic) potential at core
  the test charge radii are     0.7079  0.9587  0.9698
  (the norm of the test charge is              1.0000)
       1 -63.7566       2 -63.7566       3 -65.1041       4 -65.1041       5 -63.7557
       6 -63.7557       7 -87.8712       8 -87.8712       9 -88.0760      10 -87.7480
      11 -88.1237      12 -87.8647      13 -88.0760      14 -87.7480      15 -88.1237
      16 -87.8647



 E-fermi :   3.4508     XC(G=0):  -9.1226     alpha+bet :-10.6851


 k-point     1 :       0.0000    0.0000    0.0000
  band No.  band energies     occupation 
      1     -42.2265      2.00000
      2     -42.2264      2.00000
      3     -40.9942      2.00000
      4     -40.9930      2.00000
      5     -40.9464      2.00000
      6     -40.9458      2.00000
      7     -12.3941      2.00000
      8     -12.1699      2.00000
      9      -9.5568      2.00000
     10      -9.3648      2.00000
     11      -9.1569      2.00000
     12      -9.1559      2.00000
     13      -8.8023      2.00000
     14      -8.6370      2.00000
     15      -5.8065      2.00000
     16      -5.2363      2.00000
     17      -2.7606      2.00000
     18      -2.7003      2.00000
     19      -2.1512      2.00000
     20      -2.0424      2.00000
     21      -1.8372      2.00000
     22      -1.3922      2.00000
     23      -0.3365      2.00000
     24       0.1837      2.00000
     25       0.2707      2.00000
     26       0.3221      2.00000
     27       0.7365      2.00000
     28       0.9128      2.00000
     29       1.1520      2.00000
     30       1.5620      2.00000
     31       1.7223      2.00000
     32       1.8031      2.00000
     33       1.9800      2.00000
     34       2.3280      2.00000
     35       2.6394      2.00000
     36       2.7488      2.00000
     37       2.7847      2.00000
     38       3.3821      2.00000
     39       5.6664      0.00000
     40       6.2568      0.00000
     41       6.5584      0.00000
     42       6.6161      0.00000
     43       6.9831      0.00000
     44       7.1855      0.00000
     45       7.3076      0.00000
     46       7.3873      0.00000
     47       7.8192      0.00000
     48       8.2363      0.00000

 k-point     2 :       0.3333    0.0000    0.0000
  band No.  band energies     occupation 
      1     -42.2265      2.00000
      2     -42.2264      2.00000
      3     -40.9942      2.00000
      4     -40.9930      2.00000
      5     -40.9463      2.00000
      6     -40.9458      2.00000
      7     -12.3231      2.00000
      8     -12.1915      2.00000
      9      -9.5998      2.00000
     10      -9.4120      2.00000
     11      -9.2515      2.00000
     12      -9.0781      2.00000
     13      -8.8720      2.00000
     14      -8.6896      2.00000
     15      -5.6329      2.00000
     16      -5.2507      2.00000
     17      -2.5730      2.00000
     18      -2.3889      2.00000
     19      -2.1601      2.00000
     20      -1.9628      2.00000
     21      -1.8109      2.00000
     22      -1.3525      2.00000
     23      -0.4480      2.00000
     24      -0.0431      2.00000
     25       0.1508      2.00000
     26       0.3434      2.00000
     27       0.7190      2.00000
     28       0.8486      2.00000
     29       1.1301      2.00000
     30       1.4634      2.00000
     31       1.5185      2.00000
     32       1.7806      2.00000
     33       2.0697      2.00000
     34       2.3060      2.00000
     35       2.5358      2.00000
     36       2.7526      2.00000
     37       3.0596      2.00000
     38       3.4006      2.00000
     39       5.1810      0.00000
     40       5.8053      0.00000
     41       6.5433      0.00000
     42       6.6471      0.00000
     43       6.7935      0.00000
     44       7.0075      0.00000
     45       7.3298      0.00000
     46       7.5421      0.00000
     47       7.6188      0.00000
     48       8.0837      0.00000

 k-point     3 :       0.0000    0.3333    0.0000
  band No.  band energies     occupation 
      1     -42.2265      2.00000
      2     -42.2264      2.00000
      3     -40.9939      2.00000
      4     -40.9933      2.00000
      5     -40.9462      2.00000
      6     -40.9459      2.00000
      7     -12.2655      2.00000
      8     -12.1412      2.00000
      9      -9.6838      2.00000
     10      -9.6772      2.00000
     11      -9.1841      2.00000
     12      -9.1366      2.00000
     13      -8.8853      2.00000
     14      -8.7925      2.00000
     15      -5.0914      2.00000
     16      -4.7569      2.00000
     17      -2.7955      2.00000
     18      -2.5661      2.00000
     19      -2.1819      2.00000
     20      -2.0707      2.00000
     21      -1.8350      2.00000
     22      -1.4774      2.00000
     23      -0.3970      2.00000
     24       0.0092      2.00000
     25       0.2343      2.00000
     26       0.2476      2.00000
     27       0.8636      2.00000
     28       0.9811      2.00000
     29       1.1882      2.00000
     30       1.3299      2.00000
     31       1.6422      2.00000
     32       1.8263      2.00000
     33       2.0002      2.00000
     34       2.1786      2.00000
     35       2.2174      2.00000
     36       2.4275      2.00000
     37       2.6408      2.00000
     38       2.9449      2.00000
     39       5.9255      0.00000
     40       6.4042      0.00000
     41       6.6630      0.00000
     42       6.6837      0.00000
     43       7.0474      0.00000
     44       7.1508      0.00000
     45       7.3211      0.00000
     46       7.3831      0.00000
     47       7.9451      0.00000
     48       8.1708      0.00000

 k-point     4 :       0.3333    0.3333    0.0000
  band No.  band energies     occupation 
      1     -42.2265      2.00000
      2     -42.2264      2.00000
      3     -40.9939      2.00000
      4     -40.9933      2.00000
      5     -40.9462      2.00000
      6     -40.9460      2.00000
      7     -12.2103      2.00000
      8     -12.1372      2.00000
      9      -9.7408      2.00000
     10      -9.6646      2.00000
     11      -9.2785      2.00000
     12      -9.2268      2.00000
     13      -8.8627      2.00000
     14      -8.8049      2.00000
     15      -4.9518      2.00000
     16      -4.7053      2.00000
     17      -2.7489      2.00000
     18      -2.4928      2.00000
     19      -2.0215      2.00000
     20      -1.9742      2.00000
     21      -1.7842      2.00000
     22      -1.3109      2.00000
     23      -0.5315      2.00000
     24       0.1474      2.00000
     25       0.2671      2.00000
     26       0.4947      2.00000
     27       0.6679      2.00000
     28       0.8186      2.00000
     29       1.0036      2.00000
     30       1.1747      2.00000
     31       1.3265      2.00000
     32       1.5739      2.00000
     33       1.8864      2.00000
     34       2.0968      2.00000
     35       2.3506      2.00000
     36       2.5560      2.00000
     37       2.7946      2.00000
     38       2.9497      2.00000
     39       5.3655      0.00000
     40       6.0288      0.00000
     41       6.6758      0.00000
     42       6.7926      0.00000
     43       6.8992      0.00000
     44       7.1939      0.00000
     45       7.3031      0.00000
     46       7.5100      0.00000
     47       7.8220      0.00000
     48       8.2149      0.00000

 k-point     5 :       0.0000    0.0000    0.3333
  band No.  band energies     occupation 
      1     -42.2265      2.00000
      2     -42.2264      2.00000
      3     -40.9942      2.00000
      4     -40.9930      2.00000
      5     -40.9464      2.00000
      6     -40.9458      2.00000
      7     -12.3481      2.00000
      8     -12.2234      2.00000
      9      -9.5231      2.00000
     10      -9.3837      2.00000
     11      -9.1619      2.00000
     12      -9.0697      2.00000
     13      -8.8958      2.00000
     14      -8.6524      2.00000
     15      -5.6619      2.00000
     16      -5.3522      2.00000
     17      -2.7803      2.00000
     18      -2.7410      2.00000
     19      -2.0848      2.00000
     20      -2.0425      2.00000
     21      -1.7309      2.00000
     22      -1.5730      2.00000
     23      -0.4942      2.00000
     24       0.2101      2.00000
     25       0.4985      2.00000
     26       0.5705      2.00000
     27       0.6564      2.00000
     28       1.0315      2.00000
     29       1.2133      2.00000
     30       1.4180      2.00000
     31       1.7253      2.00000
     32       1.7790      2.00000
     33       1.9290      2.00000
     34       2.1354      2.00000
     35       2.4262      2.00000
     36       2.8298      2.00000
     37       2.8749      2.00000
     38       3.3075      2.00000
     39       5.7174      0.00000
     40       6.1769      0.00000
     41       6.5130      0.00000
     42       6.6544      0.00000
     43       6.8719      0.00000
     44       6.8904      0.00000
     45       7.1201      0.00000
     46       7.5056      0.00000
     47       7.8466      0.00000
     48       8.1201      0.00000

 k-point     6 :       0.3333    0.0000    0.3333
  band No.  band energies     occupation 
      1     -42.2265      2.00000
      2     -42.2264      2.00000
      3     -40.9942      2.00000
      4     -40.9931      2.00000
      5     -40.9463      2.00000
      6     -40.9458      2.00000
      7     -12.2900      2.00000
      8     -12.2247      2.00000
      9      -9.6505      2.00000
     10      -9.4468      2.00000
     11      -9.1137      2.00000
     12      -9.0624      2.00000
     13      -8.9338      2.00000
     14      -8.6952      2.00000
     15      -5.5546      2.00000
     16      -5.3321      2.00000
     17      -2.5048      2.00000
     18      -2.4564      2.00000
     19      -2.1793      2.00000
     20      -2.0136      2.00000
     21      -1.7136      2.00000
     22      -1.4039      2.00000
     23      -0.4718      2.00000
     24      -0.0547      2.00000
     25       0.2929      2.00000
     26       0.5971      2.00000
     27       0.6137      2.00000
     28       0.8924      2.00000
     29       1.0723      2.00000
     30       1.3800      2.00000
     31       1.4588      2.00000
     32       1.7354      2.00000
     33       1.9311      2.00000
     34       2.1396      2.00000
     35       2.5749      2.00000
     36       2.9011      2.00000
     37       3.1012      2.00000
     38       3.3278      2.00000
     39       5.3718      0.00000
     40       5.5451      0.00000
     41       6.4298      0.00000
     42       6.6768      0.00000
     43       6.7930      0.00000
     44       7.0530      0.00000
     45       7.2142      0.00000
     46       7.7026      0.00000
     47       7.7589      0.00000
     48       7.9457      0.00000

 k-point     7 :      -0.3333    0.0000    0.3333
  band No.  band energies     occupation 
      1     -42.2265      2.00000
      2     -42.2265      2.00000
      3     -40.9942      2.00000
      4     -40.9931      2.00000
      5     -40.9463      2.00000
      6     -40.9458      2.00000
      7     -12.2965      2.00000
      8     -12.2180      2.00000
      9      -9.6255      2.00000
     10      -9.4339      2.00000
     11      -9.2108      2.00000
     12      -9.0740      2.00000
     13      -8.8703      2.00000
     14      -8.6877      2.00000
     15      -5.5420      2.00000
     16      -5.3470      2.00000
     17      -2.5680      2.00000
     18      -2.4078      2.00000
     19      -2.1276      2.00000
     20      -1.9162      2.00000
     21      -1.7544      2.00000
     22      -1.4929      2.00000
     23      -0.4622      2.00000
     24       0.0369      2.00000
     25       0.1613      2.00000
     26       0.2606      2.00000
     27       0.6846      2.00000
     28       1.0363      2.00000
     29       1.1995      2.00000
     30       1.3145      2.00000
     31       1.6068      2.00000
     32       1.7963      2.00000
     33       1.9041      2.00000
     34       2.2470      2.00000
     35       2.4735      2.00000
     36       2.8413      2.00000
     37       3.0095      2.00000
     38       3.3742      2.00000
     39       5.2615      0.00000
     40       5.7944      0.00000
     41       6.3517      0.00000
     42       6.4990      0.00000
     43       6.8128      0.00000
     44       7.2295      0.00000
     45       7.4262      0.00000
     46       7.6190      0.00000
     47       7.6812      0.00000
     48       7.9326      0.00000

 k-point     8 :       0.0000    0.3333    0.3333
  band No.  band energies     occupation 
      1     -42.2265      2.00000
      2     -42.2264      2.00000
      3     -40.9939      2.00000
      4     -40.9933      2.00000
      5     -40.9462      2.00000
      6     -40.9459      2.00000
      7     -12.2374      2.00000
      8     -12.1684      2.00000
      9      -9.7118      2.00000
     10      -9.6754      2.00000
     11      -9.1875      2.00000
     12      -9.1275      2.00000
     13      -8.9292      2.00000
     14      -8.7198      2.00000
     15      -5.0233      2.00000
     16      -4.8546      2.00000
     17      -2.8136      2.00000
     18      -2.5538      2.00000
     19      -2.1346      2.00000
     20      -2.0656      2.00000
     21      -1.7467      2.00000
     22      -1.5684      2.00000
     23      -0.4354      2.00000
     24       0.0658      2.00000
     25       0.3521      2.00000
     26       0.4992      2.00000
     27       0.6593      2.00000
     28       0.8215      2.00000
     29       1.1391      2.00000
     30       1.2573      2.00000
     31       1.5828      2.00000
     32       1.6820      2.00000
     33       1.9822      2.00000
     34       2.0088      2.00000
     35       2.3034      2.00000
     36       2.5349      2.00000
     37       2.7713      2.00000
     38       3.0789      2.00000
     39       5.9808      0.00000
     40       6.1651      0.00000
     41       6.6010      0.00000
     42       6.7433      0.00000
     43       6.9059      0.00000
     44       7.1627      0.00000
     45       7.2969      0.00000
     46       7.6068      0.00000
     47       7.8580      0.00000
     48       8.1834      0.00000

 k-point     9 :       0.3333    0.3333    0.3333
  band No.  band energies     occupation 
      1     -42.2265      2.00000
      2     -42.2265      2.00000
      3     -40.9939      2.00000
      4     -40.9933      2.00000
      5     -40.9462      2.00000
      6     -40.9460      2.00000
      7     -12.1904      2.00000
      8     -12.1544      2.00000
      9      -9.7592      2.00000
     10      -9.6680      2.00000
     11      -9.3191      2.00000
     12      -9.1895      2.00000
     13      -8.9029      2.00000
     14      -8.7382      2.00000
     15      -4.9005      2.00000
     16      -4.7592      2.00000
     17      -2.7598      2.00000
     18      -2.4529      2.00000
     19      -1.9940      2.00000
     20      -1.9007      2.00000
     21      -1.7208      2.00000
     22      -1.4813      2.00000
     23      -0.5273      2.00000
     24      -0.0790      2.00000
     25       0.2253      2.00000
     26       0.4623      2.00000
     27       0.7560      2.00000
     28       0.8922      2.00000
     29       1.1011      2.00000
     30       1.2930      2.00000
     31       1.3682      2.00000
     32       1.5091      2.00000
     33       1.7840      2.00000
     34       1.9423      2.00000
     35       2.3417      2.00000
[...]
  band No.  band energies     occupation 
      1     -41.0822      2.00000
      2     -41.0821      2.00000
      3     -40.6695      2.00000
      4     -40.6689      2.00000
      5     -40.6631      2.00000
      6     -40.6625      2.00000
      7     -12.5885      2.00000
      8     -12.5037      2.00000
      9      -9.5335      2.00000
     10      -9.4702      2.00000
     11      -9.4248      2.00000
     12      -9.4020      2.00000
     13      -9.3626      2.00000
     14      -9.3095      2.00000
     15      -5.4514      2.00000
     16      -5.1670      2.00000
     17      -2.6762      2.00000
     18      -2.6345      2.00000
     19      -2.5154      2.00000
     20      -2.2569      2.00000
     21      -2.1326      2.00000
     22      -2.1201      2.00000
     23      -0.0714      2.00000
     24       0.0351      2.00000
     25       0.2233      2.00000
     26       0.4436      2.00000
     27       0.4596      2.00000
     28       0.6165      2.00000
     29       0.9378      2.00000
     30       1.1216      2.00000
     31       1.2580      2.00000
     32       1.4108      2.00000
     33       1.5461      2.00000
     34       1.5541      2.00000
     35       1.7423      2.00000
     36       1.8471      2.00000
     37       1.8773      2.00000
     38       1.9179      2.00000
     39       5.9338      0.00000
     40       6.1115      0.00000
     41       6.3322      0.00000
     42       6.3990      0.00000
     43       6.7176      0.00000
     44       6.8785      0.00000
     45       7.1748      0.00000
     46       7.1953      0.00000
     47       8.0728      0.00000
     48       8.7148      0.00000

 k-point     6 :       0.3333    0.0000    0.3333
  band No.  band energies     occupation 
      1     -41.0822      2.00000
      2     -41.0821      2.00000
      3     -40.6696      2.00000
      4     -40.6689      2.00000
      5     -40.6632      2.00000
      6     -40.6625      2.00000
      7     -12.5531      2.00000
      8     -12.5053      2.00000
      9      -9.6250      2.00000
     10      -9.5800      2.00000
     11      -9.4129      2.00000
     12      -9.3819      2.00000
     13      -9.3259      2.00000
     14      -9.3129      2.00000
     15      -5.3043      2.00000
     16      -5.1539      2.00000
     17      -2.6348      2.00000
     18      -2.5263      2.00000
     19      -2.4007      2.00000
     20      -2.2803      2.00000
     21      -2.1298      2.00000
     22      -2.0993      2.00000
     23      -0.1290      2.00000
     24      -0.0382      2.00000
     25       0.1004      2.00000
     26       0.3174      2.00000
     27       0.5751      2.00000
     28       0.7993      2.00000
     29       0.9091      2.00000
     30       0.9865      2.00000
     31       1.1611      2.00000
     32       1.3211      2.00000
     33       1.3806      2.00000
     34       1.4877      2.00000
     35       1.7610      2.00000
     36       1.8931      2.00000
     37       1.9740      2.00000
     38       2.0682      2.00000
     39       5.5823      0.00000
     40       6.0754      0.00000
     41       6.4292      0.00000
     42       6.5572      0.00000
     43       6.8263      0.00000
     44       6.8399      0.00000
     45       7.1452      0.00000
     46       7.2160      0.00000
     47       8.3293      0.00000
     48       8.5797      0.00000

 k-point     7 :      -0.3333    0.0000    0.3333
  band No.  band energies     occupation 
      1     -41.0822      2.00000
      2     -41.0821      2.00000
      3     -40.6696      2.00000
      4     -40.6689      2.00000
      5     -40.6632      2.00000
      6     -40.6625      2.00000
      7     -12.5539      2.00000
      8     -12.5044      2.00000
      9      -9.6219      2.00000
     10      -9.5827      2.00000
     11      -9.4158      2.00000
     12      -9.3781      2.00000
     13      -9.3308      2.00000
     14      -9.3094      2.00000
     15      -5.3046      2.00000
     16      -5.1532      2.00000
     17      -2.6345      2.00000
     18      -2.5304      2.00000
     19      -2.3943      2.00000
     20      -2.2794      2.00000
     21      -2.1204      2.00000
     22      -2.1118      2.00000
     23      -0.1310      2.00000
     24      -0.0419      2.00000
     25       0.1005      2.00000
     26       0.3152      2.00000
     27       0.5764      2.00000
     28       0.7998      2.00000
     29       0.9169      2.00000
     30       0.9846      2.00000
     31       1.1680      2.00000
     32       1.3181      2.00000
     33       1.3766      2.00000
     34       1.4827      2.00000
     35       1.7735      2.00000
     36       1.8877      2.00000
     37       1.9707      2.00000
     38       2.0663      2.00000
     39       5.5803      0.00000
     40       6.0825      0.00000
     41       6.4416      0.00000
     42       6.5481      0.00000
     43       6.8207      0.00000
     44       6.8434      0.00000
     45       7.1369      0.00000
     46       7.2168      0.00000
     47       8.3415      0.00000
     48       8.5828      0.00000

 k-point     8 :       0.0000    0.3333    0.3333
  band No.  band energies     occupation 
      1     -41.0822      2.00000
      2     -41.0821      2.00000
      3     -40.6694      2.00000
      4     -40.6691      2.00000
      5     -40.6630      2.00000
      6     -40.6627      2.00000
      7     -12.5345      2.00000
      8     -12.4904      2.00000
      9      -9.6259      2.00000
     10      -9.5762      2.00000
     11      -9.4363      2.00000
     12      -9.3968      2.00000
     13      -9.3766      2.00000
     14      -9.3486      2.00000
     15      -5.3299      2.00000
     16      -5.1699      2.00000
     17      -2.4719      2.00000
     18      -2.4142      2.00000
     19      -2.2191      2.00000
     20      -2.1829      2.00000
     21      -2.0582      2.00000
     22      -1.9993      2.00000
     23      -0.2035      2.00000
     24      -0.1292      2.00000
     25       0.0702      2.00000
     26       0.1250      2.00000
     27       0.2551      2.00000
     28       0.5980      2.00000
     29       0.9585      2.00000
     30       0.9786      2.00000
     31       1.1586      2.00000
     32       1.2569      2.00000
     33       1.5659      2.00000
     34       1.6700      2.00000
     35       1.7793      2.00000
     36       1.9211      2.00000
     37       1.9821      2.00000
     38       2.0745      2.00000
     39       5.4459      0.00000
     40       5.8114      0.00000
     41       6.5363      0.00000
     42       6.6190      0.00000
     43       6.8711      0.00000
     44       6.9428      0.00000
     45       7.1889      0.00000
     46       7.3086      0.00000
     47       8.1415      0.00000
     48       8.5292      0.00000

 k-point     9 :       0.3333    0.3333    0.3333
  band No.  band energies     occupation 
      1     -41.0822      2.00000
      2     -41.0822      2.00000
      3     -40.6694      2.00000
      4     -40.6691      2.00000
      5     -40.6630      2.00000
      6     -40.6627      2.00000
      7     -12.5082      2.00000
      8     -12.4834      2.00000
      9      -9.5991      2.00000
     10      -9.5468      2.00000
     11      -9.5351      2.00000
     12      -9.4462      2.00000
     13      -9.4065      2.00000
     14      -9.3759      2.00000
     15      -5.1952      2.00000
     16      -5.1106      2.00000
     17      -2.4012      2.00000
     18      -2.3339      2.00000
     19      -2.1695      2.00000
     20      -2.1564      2.00000
     21      -2.0311      2.00000
     22      -2.0051      2.00000
     23      -0.2941      2.00000
     24      -0.1799      2.00000
     25      -0.0261      2.00000
     26       0.1094      2.00000
     27       0.4997      2.00000
     28       0.5962      2.00000
     29       0.8426      2.00000
     30       0.9627      2.00000
     31       1.0709      2.00000
     32       1.1822      2.00000
     33       1.5390      2.00000
     34       1.6209      2.00000
     35       1.7900      2.00000
     36       1.8626      2.00000
     37       2.0411      2.00000
     38       2.1008      2.00000
     39       5.3616      0.00000
     40       5.6152      0.00000
     41       6.4757      0.00000
     42       6.5909      0.00000
     43       6.7476      0.00000
     44       6.9144      0.00000
     45       7.0651      0.00000
     46       7.1864      0.00000
     47       8.2125      0.00000
     48       8.4823      0.00000

 k-point    10 :      -0.3333    0.3333    0.3333
  band No.  band energies     occupation 
      1     -41.0822      2.00000
      2     -41.0822      2.00000
      3     -40.6694      2.00000
      4     -40.6691      2.00000
      5     -40.6630      2.00000
      6     -40.6627      2.00000
      7     -12.5086      2.00000
      8     -12.4829      2.00000
      9      -9.5985      2.00000
     10      -9.5466      2.00000
     11      -9.5337      2.00000
     12      -9.4470      2.00000
     13      -9.4052      2.00000
     14      -9.3789      2.00000
     15      -5.1948      2.00000
     16      -5.1105      2.00000
     17      -2.3986      2.00000
     18      -2.3332      2.00000
     19      -2.1677      2.00000
     20      -2.1614      2.00000
     21      -2.0321      2.00000
     22      -2.0038      2.00000
     23      -0.2913      2.00000
     24      -0.1725      2.00000
     25      -0.0315      2.00000
     26       0.1030      2.00000
     27       0.4955      2.00000
     28       0.5954      2.00000
     29       0.8451      2.00000
     30       0.9679      2.00000
     31       1.0683      2.00000
     32       1.1779      2.00000
     33       1.5428      2.00000
     34       1.6229      2.00000
     35       1.7921      2.00000
     36       1.8597      2.00000
     37       2.0436      2.00000
     38       2.0964      2.00000
     39       5.3604      0.00000
     40       5.6206      0.00000
     41       6.4737      0.00000
     42       6.5821      0.00000
     43       6.7608      0.00000
     44       6.9255      0.00000
     45       7.0597      0.00000
     46       7.1814      0.00000
     47       8.2252      0.00000
     48       8.4871      0.00000


--------------------------------------------------------------------------------------------------------


 soft charge-density along one line, spin component           1
         0         1         2         3         4         5         6         7         8         9
 total charge-density along one line

 pseudopotential strength for first ion, spin component:           1
-36.421   2.754   0.000  -0.000  -0.000
  2.754  -9.100   0.001  -0.001  -0.000
  0.000   0.001   0.251  -0.000   0.000
 -0.000  -0.001  -0.000   0.251   0.000
 -0.000  -0.000   0.000   0.000   0.251
 total augmentation occupancy for first ion, spin component:           1
  2.002   0.022  -0.001   0.001   0.000
  0.022   0.814   0.003  -0.004  -0.000
 -0.001   0.003   0.041   0.000  -0.002
  0.001  -0.004   0.000   0.043  -0.002
  0.000  -0.000  -0.002  -0.002   0.041


------------------------ aborting loop because EDIFF is reached ----------------------------------------


    CHARGE:  cpu time    0.0278: real time    0.0280
    FORLOC:  cpu time    0.0008: real time    0.0008
    FORNL :  cpu time    0.0792: real time    0.0813
    STRESS:  cpu time    0.2522: real time    0.2540
    FORCOR:  cpu time    0.0041: real time    0.0041
    FORHAR:  cpu time    0.0037: real time    0.0037
    MIXING:  cpu time    0.0004: real time    0.0004
    OFIELD:  cpu time    0.0000: real time    0.0000

  FORCE on cell =-STRESS in cart. coord.  units (eV):
  Direction    XX          YY          ZZ          XY          YZ          ZX
  --------------------------------------------------------------------------------------
  Alpha Z    68.60422    68.60422    68.60422
  Ewald    -941.22020  -879.39424  -914.51004     0.00000     0.00000     0.17626
  Hartree   198.70230   238.19627   209.96961    -0.00000    -0.00000     0.28327
  E(xc)    -277.29276  -277.29164  -277.34553     0.00000     0.00000     0.00042
  Local    -606.42057  -706.99994  -644.38274     0.00000     0.00000    -0.52651
  n-local   601.90411   602.28864   603.91910    -0.00031    -0.04597    -0.05438
  augment   -44.60899   -44.53730   -44.65710    -0.00000    -0.00000    -0.00046
  Kinetic  1000.33890   999.13906   998.36239    -0.10987     0.13923     0.07163
  Fock        0.00000     0.00000     0.00000     0.00000     0.00000     0.00000
  -------------------------------------------------------------------------------------
  Total       0.00701     0.00508    -0.04010     0.00000     0.00000    -0.04976
  in kB       0.03906     0.02831    -0.22335     0.00000     0.00000    -0.27719
  external pressure =       -0.05 kB  Pullay stress =        0.00 kB


 VOLUME and BASIS-vectors are now :
 -----------------------------------------------------------------------------
  energy-cutoff  :      420.00
  volume of cell :      287.63
      direct lattice vectors                 reciprocal lattice vectors
     6.303490588  0.000000000 -0.060466167     0.158633299 -0.000000000 -0.000934248
     0.000000000  5.995069389  0.000000000    -0.000000000  0.166803741 -0.000000000
     0.044823860  0.000000000  7.610995765     0.001260275 -0.000000000  0.131381430

  length of vectors
     6.303780592  5.995069389  7.611127755     0.158636050  0.166803741  0.131387475


 FORCES acting on ions
    electron-ion (+dipol)            ewald-force                    non-local-force                 convergence-correction
 -----------------------------------------------------------------------------------------------
   -.274E+01 0.228E+01 -.315E+01   0.270E+01 -.216E+01 0.300E+01   0.373E-01 -.112E+00 0.145E+00   -.114E-02 -.298E-02 0.349E-02
   0.274E+01 0.228E+01 0.315E+01   -.270E+01 -.216E+01 -.300E+01   -.373E-01 -.112E+00 -.145E+00   0.114E-02 -.298E-02 -.349E-02
   -.156E+02 -.174E+01 0.103E-01   0.146E+02 0.144E+01 -.103E-01   0.102E+01 0.301E+00 0.133E-02   -.607E-02 -.123E-02 -.489E-02
   0.156E+02 -.174E+01 -.103E-01   -.146E+02 0.144E+01 0.103E-01   -.102E+01 0.301E+00 -.133E-02   0.607E-02 -.123E-02 0.489E-02
   -.327E+01 0.227E+01 0.276E+01   0.320E+01 -.216E+01 -.266E+01   0.818E-01 -.103E+00 -.110E+00   0.400E-02 -.361E-02 0.179E-02
   0.327E+01 0.227E+01 -.276E+01   -.320E+01 -.216E+01 0.266E+01   -.818E-01 -.103E+00 0.110E+00   -.400E-02 -.361E-02 -.179E-02
   0.302E+01 0.327E+00 -.903E-01   -.289E+01 -.284E+00 0.546E-01   -.135E+00 -.375E-01 0.239E-01   0.332E-02 -.119E-02 0.116E-03
   -.302E+01 0.327E+00 0.903E-01   0.289E+01 -.284E+00 -.546E-01   0.135E+00 -.375E-01 -.239E-01   -.332E-02 -.119E-02 -.116E-03
   0.929E+01 0.561E+02 -.355E+00   -.949E+01 -.589E+02 0.365E+00   0.198E+00 0.280E+01 -.175E-01   0.598E-02 0.757E-03 -.134E-02
   0.314E+02 -.170E+02 0.575E+02   -.331E+02 0.179E+02 -.593E+02   0.167E+01 -.932E+00 0.185E+01   0.515E-02 0.932E-03 0.162E-02
   -.624E+02 -.250E+02 0.483E+00   0.649E+02 0.259E+02 -.480E+00   -.250E+01 -.827E+00 -.246E-02   -.637E-03 -.211E-02 -.373E-02
   0.316E+02 -.173E+02 -.572E+02   -.332E+02 0.182E+02 0.591E+02   0.160E+01 -.947E+00 -.188E+01   -.527E-02 0.477E-02 -.754E-02
   -.929E+01 0.561E+02 0.355E+00   0.949E+01 -.589E+02 -.365E+00   -.198E+00 0.280E+01 0.175E-01   -.598E-02 0.757E-03 0.134E-02
   -.314E+02 -.170E+02 -.575E+02   0.331E+02 0.179E+02 0.593E+02   -.167E+01 -.932E+00 -.185E+01   -.515E-02 0.932E-03 -.162E-02
   0.624E+02 -.250E+02 -.483E+00   -.649E+02 0.259E+02 0.480E+00   0.250E+01 -.827E+00 0.246E-02   0.637E-03 -.211E-02 0.373E-02
   -.316E+02 -.173E+02 0.572E+02   0.332E+02 0.182E+02 -.591E+02   -.160E+01 -.947E+00 0.188E+01   0.527E-02 0.477E-02 0.754E-02
 -----------------------------------------------------------------------------------------------
   -.261E-07 -.288E+00 0.529E-05   0.213E-13 0.213E-13 0.711E-14   0.444E-15 0.291E+00 0.000E+00   -.393E-12 -.933E-02 0.109E-11


 POSITION                                       TOTAL-FORCE (eV/Angst)
 -----------------------------------------------------------------------------------
      5.11912      2.04011      0.00412        -0.002493      0.005379      0.002918
      1.18437      5.03765     -0.06459         0.002493      0.005379     -0.002918
      4.15282      5.13451      1.87381        -0.003307     -0.007107     -0.003570
      2.19549      2.13697      5.67672         0.003307     -0.007107      0.003570
      5.13711      2.04188      3.71309         0.012982      0.001529     -0.004812
      1.21120      5.03941      3.83744        -0.012982      0.001529      0.004812
      2.01535      2.04744      1.87646        -0.000690      0.004901     -0.011692
      4.33296      5.04498      5.67407         0.000690      0.004901      0.011692
      1.96194      0.01058      1.88185         0.001159      0.002201     -0.008465
      1.06159      2.71053      0.20576        -0.001324     -0.008047      0.012915
      3.92514      2.73890      1.86685         0.007639     -0.004107     -0.003369
      1.07726      2.71591      3.55373        -0.014557      0.005252      0.004492
      4.38638      3.00812      5.66868        -0.001159      0.002201      0.008465
      5.28672      5.70806      7.34477         0.001324     -0.008047     -0.012915
      2.42317      5.73643      5.68368        -0.007639     -0.004107      0.003369
      5.27105     -0.28162      3.99680         0.014557      0.005252     -0.004492
 -----------------------------------------------------------------------------------
    total drift:                               -0.000000     -0.006027      0.000005


--------------------------------------------------------------------------------------------------------



  FREE ENERGIE OF THE ION-ELECTRON SYSTEM (eV)
  ---------------------------------------------------
  free  energy   TOTEN  =       -77.35594045 eV

  energy  without entropy=      -77.35594045  energy(sigma->0) =      -77.35594045

 d Force = 0.3049004E-05[-0.403E-06, 0.650E-05]  d Energy = 0.2981558E-04-0.268E-04
 d Force = 0.5884647E-01[ 0.588E-01, 0.589E-01]  d Ewald  = 0.1474479E+00-0.886E-01


--------------------------------------------------------------------------------------------------------


    POTLOK:  cpu time    0.0060: real time    0.0060


--------------------------------------------------------------------------------------------------------




--------------------------------------------------------------------------------------------------------


  
 reached required accuracy - stopping structural energy minimisation
     LOOP+:  cpu time    1.4110: real time    1.5142
    4ORBIT:  cpu time    0.0000: real time    0.0000
 BZINTS: Fermi energy:  2.303418; 76.000000 electrons
         Band energy:-668.590602;  BLOECHL correction:  0.000000

 total amount of memory used by VASP MPI-rank0    34032. kBytes
=======================================================================

   base      :      30000. kBytes
   nonlr-proj:       1215. kBytes
   fftplans  :        741. kBytes
   grid      :       1382. kBytes
   one-center:          3. kBytes
   wavefun   :        691. kBytes

  
  
 General timing and accounting informations for this job:
 ========================================================
  
                  Total CPU time used (sec):      211.275
                            User time (sec):      208.428
                          System time (sec):        2.847
                         Elapsed time (sec):      219.475
  
                   Maximum memory used (kb):       61888.
                   Average memory used (kb):           0.
  
                          Minor page faults:        33092
                          Major page faults:           58
                 Voluntary context switches:         1380
