<?xml version="1.0" encoding="ISO-8859-1"?>
<modeling>
 <generator>
  <i name="program" type="string">vasp </i>
  <i name="version" type="string">5.4.4.18Apr17-6-g9f103f2a35  </i>
  <i name="subversion" type="string">(build Feb 14 2024 16:55:51) complex            parallel </i>
  <i name="platform" type="string">LinuxGNU </i>
  <i name="date" type="string">2024 06 05 </i>
  <i name="time" type="string">14:41:18 </i>
 </generator>
 <incar>
  <i type="int" name="ISTART">     0</i>
  <i type="string" name="PREC">accurate</i>
  <i type="string" name="ALGO"> FAST</i>
  <i type="int" name="ICHARG">     2</i>
  <i type="int" name="INIWAV">     1</i>
  <i type="int" name="NELM">   100</i>
  <i type="int" name="IBRION">     2</i>
  <i name="EDIFF">      0.00002000</i>
  <i name="EDIFFG">      0.00020000</i>
  <i type="int" name="NSW">   300</i>
  <i type="int" name="ISIF">     3</i>
  <i name="SYMPREC">      0.00050000</i>
  <i name="ENCUT">    420.00000000</i>
  <i type="string" name="LREAL"> AUTO</i>
  <i type="int" name="ISMEAR">    -5</i>
  <i type="logical" name="LWAVE"> F  </i>
  <i type="logical" name="LCHARG"> F  </i>
  <v type="int" name="KPOINT_BSE">    -1     0     0     0</v>
  <i type="int" name="NELM">   100</i>
 </incar>
 <structure name="primitive_cell" >
  <crystal>
   <varray name="basis" >
    <v>       6.10653901       0.00000000      -0.07759077 </v>
    <v>       0.00000000       5.92906174       0.00000000 </v>
    <v>       0.00000000       0.00000000       7.80674875 </v>
   </varray>
   <i name="volume">    282.65151095 </i>
   <varray name="rec_basis" >
    <v>       0.16375888       0.00000000       0.00000000 </v>
    <v>      -0.00000000       0.16866075       0.00000000 </v>
    <v>       0.00162759      -0.00000000       0.12809430 </v>
   </varray>
  </crystal>
  <varray name="positions" >
   <v>      -0.21567272       0.35848886      -0.01158407 </v>
   <v>       0.11379863       0.42619023       0.03852561 </v>
   <v>      -0.39837459       0.36352420       0.22057390 </v>
   <v>       0.48650340       0.28926674      -0.23274861 </v>
   <v>      -0.11379863      -0.07380977      -0.03852561 </v>
   <v>      -0.17674149      -0.47211858      -0.33422294 </v>
   <v>      -0.16586365       0.34785905       0.43018052 </v>
   <v>      -0.27217711      -0.15926717      -0.25971856 </v>
   <v>      -0.48650340      -0.21073326       0.23274861 </v>
   <v>       0.27217711       0.34073283       0.25971856 </v>
   <v>      -0.20249477       0.08869730      -0.43164958 </v>
   <v>       0.21567272      -0.14151114       0.01158407 </v>
   <v>       0.17674149       0.02788142       0.33422294 </v>
   <v>       0.39837459      -0.13647580      -0.22057390 </v>
   <v>       0.20249477      -0.41130270       0.43164958 </v>
   <v>       0.16586365      -0.15214095      -0.43018052 </v>
  </varray>
 </structure>
 <varray name="primitive_index" >
  <v type="int" >        1 </v>
  <v type="int" >       10 </v>
  <v type="int" >       11 </v>
  <v type="int" >        4 </v>
  <v type="int" >       14 </v>
  <v type="int" >       13 </v>
  <v type="int" >        5 </v>
  <v type="int" >        8 </v>
  <v type="int" >        3 </v>
  <v type="int" >        7 </v>
  <v type="int" >       16 </v>
  <v type="int" >        2 </v>
  <v type="int" >        9 </v>
  <v type="int" >       15 </v>
  <v type="int" >       12 </v>
  <v type="int" >        6 </v>
 </varray>
 <kpoints>
  <generation param="Gamma">
   <v type="int" name="divisions">       3        3        3 </v>
   <v name="usershift">      0.00000000       0.00000000       0.00000000 </v>
   <v name="genvec1">      0.33333333       0.00000000       0.00000000 </v>
   <v name="genvec2">      0.00000000       0.33333333       0.00000000 </v>
   <v name="genvec3">     -0.00000000       0.00000000       0.33333333 </v>
   <v name="shift">      0.00000000       0.00000000       0.00000000 </v>
  </generation>
  <varray name="kpointlist" >
   <v>       0.00000000       0.00000000       0.00000000 </v>
   <v>       0.33333333       0.00000000       0.00000000 </v>
   <v>       0.00000000       0.33333333       0.00000000 </v>
   <v>       0.33333333       0.33333333       0.00000000 </v>
   <v>       0.00000000       0.00000000       0.33333333 </v>
   <v>       0.33333333       0.00000000       0.33333333 </v>
   <v>      -0.33333333       0.00000000       0.33333333 </v>
   <v>       0.00000000       0.33333333       0.33333333 </v>
   <v>       0.33333333       0.33333333       0.33333333 </v>
   <v>      -0.33333333       0.33333333       0.33333333 </v>
  </varray>
  <varray name="weights" >
   <v>       0.03703704 </v>
   <v>       0.07407407 </v>
   <v>       0.07407407 </v>
   <v>       0.14814815 </v>
   <v>       0.07407407 </v>
   <v>       0.07407407 </v>
   <v>       0.07407407 </v>
   <v>       0.14814815 </v>
   <v>       0.14814815 </v>
   <v>       0.14814815 </v>
  </varray>
  <varray name="tetrahedronlist"  type="int" >
   <v type="int" >        2        1        2        4        5 </v>
   <v type="int" >        2        1        3        4        5 </v>
   <v type="int" >        2        3        4        5        8 </v>
   <v type="int" >        2        2        4        5        6 </v>
   <v type="int" >        2        4        5        6        9 </v>
   <v type="int" >        2        4        5        8        9 </v>
   <v type="int" >        2        2        2        4        6 </v>
   <v type="int" >        2        2        4        4        6 </v>
   <v type="int" >        2        4        4        6        9 </v>
   <v type="int" >        2        2        4        6        7 </v>
   <v type="int" >        2        4        6        7       10 </v>
   <v type="int" >        2        4        6        9       10 </v>
   <v type="int" >        2        1        2        3        7 </v>
   <v type="int" >        2        2        3        4        7 </v>
   <v type="int" >        2        3        4        7       10 </v>
   <v type="int" >        2        1        3        5        7 </v>
   <v type="int" >        2        3        5        7        8 </v>
   <v type="int" >        2        3        7        8       10 </v>
   <v type="int" >        2        3        4        4        8 </v>
   <v type="int" >        2        3        3        4        8 </v>
   <v type="int" >        2        3        4        8        8 </v>
   <v type="int" >        2        4        4        8        9 </v>
   <v type="int" >        2        4        8        9        9 </v>
   <v type="int" >        2        4        8        8        9 </v>
   <v type="int" >        4        4        4        4        9 </v>
   <v type="int" >        2        4        4        9        9 </v>
   <v type="int" >        2        4        4        9       10 </v>
   <v type="int" >        2        4        9       10       10 </v>
   <v type="int" >        2        4        9        9       10 </v>
   <v type="int" >        2        3        3        4       10 </v>
   <v type="int" >        2        3        4        4       10 </v>
   <v type="int" >        2        3        4       10       10 </v>
   <v type="int" >        2        3        3        8       10 </v>
   <v type="int" >        2        3        8        8       10 </v>
   <v type="int" >        2        3        8       10       10 </v>
   <v type="int" >        2        2        3        4        8 </v>
   <v type="int" >        2        1        2        3        8 </v>
   <v type="int" >        2        1        2        5        8 </v>
   <v type="int" >        2        2        4        8        9 </v>
   <v type="int" >        2        2        6        8        9 </v>
   <v type="int" >        2        2        5        6        8 </v>
   <v type="int" >        2        2        4        4        9 </v>
   <v type="int" >        2        2        2        4        9 </v>
   <v type="int" >        2        2        2        6        9 </v>
   <v type="int" >        2        2        4        9       10 </v>
   <v type="int" >        2        2        7        9       10 </v>
   <v type="int" >        2        2        6        7        9 </v>
   <v type="int" >        2        1        3        4       10 </v>
   <v type="int" >        2        1        2        4       10 </v>
   <v type="int" >        2        1        2        7       10 </v>
   <v type="int" >        2        1        3        8       10 </v>
   <v type="int" >        2        1        5        8       10 </v>
   <v type="int" >        2        1        5        7       10 </v>
   <v type="int" >        2        5        5        6        9 </v>
   <v type="int" >        2        5        5        8        9 </v>
   <v type="int" >        2        5        8        8        9 </v>
   <v type="int" >        2        5        6        7        9 </v>
   <v type="int" >        2        5        7        9       10 </v>
   <v type="int" >        2        5        8        9       10 </v>
   <v type="int" >        4        6        7        7       10 </v>
   <v type="int" >        4        6        7        9       10 </v>
   <v type="int" >        4        7        9       10       10 </v>
   <v type="int" >        2        5        6        7        8 </v>
   <v type="int" >        2        6        7        8       10 </v>
   <v type="int" >        2        6        8        9       10 </v>
   <v type="int" >        2        5        5        6        8 </v>
   <v type="int" >        2        5        6        8        8 </v>
   <v type="int" >        2        6        8        8        9 </v>
   <v type="int" >        2        8        8        9        9 </v>
   <v type="int" >        4        8        8        8        9 </v>
   <v type="int" >        2        8        9        9       10 </v>
   <v type="int" >        2        8        9       10       10 </v>
   <v type="int" >        2        8        8        9       10 </v>
   <v type="int" >        4        9       10       10       10 </v>
   <v type="int" >        2        9        9       10       10 </v>
  </varray>
  <i name="volumeweight">      0.00617284 </i>
 </kpoints>
 <parameters>
  <separator name="general" >
   <i type="string" name="SYSTEM">unknown system</i>
   <i type="logical" name="LCOMPAT"> F  </i>
  </separator>
  <separator name="electronic" >
   <i type="string" name="PREC">accura</i>
   <i name="ENMAX">    420.00000000</i>
   <i name="ENAUG">    628.94500000</i>
   <i name="EDIFF">      0.00002000</i>
   <i type="int" name="IALGO">    68</i>
   <i type="int" name="IWAVPR">    11</i>
   <i type="int" name="NBANDS">    48</i>
   <i name="NELECT">     76.00000000</i>
   <i type="int" name="TURBO">     0</i>
   <i type="int" name="IRESTART">     0</i>
   <i type="int" name="NREBOOT">     0</i>
   <i type="int" name="NMIN">     0</i>
   <i name="EREF">      0.00000000</i>
   <separator name="electronic smearing" >
    <i type="int" name="ISMEAR">    -5</i>
    <i name="SIGMA">      0.20000000</i>
    <i name="KSPACING">      0.50000000</i>
    <i type="logical" name="KGAMMA"> T  </i>
   </separator>
   <separator name="electronic projectors" >
    <i type="logical" name="LREAL"> T  </i>
    <v name="ROPT">     -0.00025000     -0.00025000     -0.00025000</v>
    <i type="int" name="LMAXPAW">  -100</i>
    <i type="int" name="LMAXMIX">     2</i>
    <i type="logical" name="NLSPLINE"> F  </i>
   </separator>
   <separator name="electronic startup" >
    <i type="int" name="ISTART">     0</i>
    <i type="int" name="ICHARG">     2</i>
    <i type="int" name="INIWAV">     1</i>
   </separator>
   <separator name="electronic spin" >
    <i type="int" name="ISPIN">     1</i>
    <i type="logical" name="LNONCOLLINEAR"> F  </i>
    <v name="MAGMOM">      1.00000000      1.00000000      1.00000000      1.00000000      1.00000000      1.00000000      1.00000000      1.00000000      1.00000000      1.00000000      1.00000000      1.00000000      1.00000000      1.00000000      1.00000000      1.00000000</v>
    <i name="NUPDOWN">     -1.00000000</i>
    <i type="logical" name="LSORBIT"> F  </i>
    <v name="SAXIS">      0.00000000      0.00000000      1.00000000</v>
    <i type="logical" name="LSPIRAL"> F  </i>
    <v name="QSPIRAL">      0.00000000      0.00000000      0.00000000</v>
    <i type="logical" name="LZEROZ"> F  </i>
   </separator>
   <separator name="electronic exchange-correlation" >
    <i type="logical" name="LASPH"> F  </i>
    <i type="logical" name="LMETAGGA"> F  </i>
   </separator>
   <separator name="electronic convergence" >
    <i type="int" name="NELM">   100</i>
    <i type="int" name="NELMDL">    -5</i>
    <i type="int" name="NELMIN">     2</i>
    <i name="ENINI">    420.00000000</i>
    <separator name="electronic convergence detail" >
     <i type="logical" name="LDIAG"> T  </i>
     <i type="logical" name="LSUBROT"> F  </i>
     <i name="WEIMIN">      0.00100000</i>
     <i name="EBREAK">      0.00000010</i>
     <i name="DEPER">      0.30000000</i>
     <i type="int" name="NRMM">     4</i>
     <i name="TIME">      0.40000000</i>
    </separator>
   </separator>
   <separator name="electronic mixer" >
    <i name="AMIX">      0.40000000</i>
    <i name="BMIX">      1.00000000</i>
    <i name="AMIN">      0.10000000</i>
    <i name="AMIX_MAG">      1.60000000</i>
    <i name="BMIX_MAG">      1.00000000</i>
    <separator name="electronic mixer details" >
     <i type="int" name="IMIX">     4</i>
     <i type="logical" name="MIXFIRST"> F  </i>
     <i type="int" name="MAXMIX">   -45</i>
     <i name="WC">    100.00000000</i>
     <i type="int" name="INIMIX">     1</i>
     <i type="int" name="MIXPRE">     1</i>
     <i type="int" name="MREMOVE">     5</i>
    </separator>
   </separator>
   <separator name="electronic dipolcorrection" >
    <i type="logical" name="LDIPOL"> F  </i>
    <i type="logical" name="LMONO"> F  </i>
    <i type="int" name="IDIPOL">     0</i>
    <i name="EPSILON">      1.00000000</i>
    <v name="DIPOL">   -100.00000000   -100.00000000   -100.00000000</v>
    <i name="EFIELD">      0.00000000</i>
   </separator>
  </separator>
  <separator name="grids" >
   <i type="int" name="NGX">    42</i>
   <i type="int" name="NGY">    40</i>
   <i type="int" name="NGZ">    54</i>
   <i type="int" name="NGXF">    84</i>
   <i type="int" name="NGYF">    80</i>
   <i type="int" name="NGZF">   108</i>
   <i type="logical" name="ADDGRID"> F  </i>
  </separator>
  <separator name="ionic" >
   <i type="int" name="NSW">   300</i>
   <i type="int" name="IBRION">     2</i>
   <i type="int" name="MDALGO">     0</i>
   <i type="int" name="ISIF">     3</i>
   <i name="PSTRESS">      0.00000000</i>
   <i name="EDIFFG">      0.00020000</i>
   <i type="int" name="NFREE">     1</i>
   <i name="POTIM">      0.50000000</i>
   <i name="SMASS">     -3.00000000</i>
   <i name="SCALEE">      1.00000000</i>
  </separator>
  <separator name="ionic md" >
   <i name="TEBEG">      0.00010000</i>
   <i name="TEEND">      0.00010000</i>
   <i type="int" name="NBLOCK">     1</i>
   <i type="int" name="KBLOCK">   300</i>
   <i type="int" name="NPACO">   256</i>
   <i name="APACO">     16.00000000</i>
  </separator>
  <separator name="symmetry" >
   <i type="int" name="ISYM">     2</i>
   <i name="SYMPREC">      0.00050000</i>
  </separator>
  <separator name="dos" >
   <i type="int" name="LORBIT">     0</i>
   <v name="RWIGS">     -1.00000000     -1.00000000     -1.00000000</v>
   <i type="int" name="NEDOS">   301</i>
   <i name="EMIN">     10.00000000</i>
   <i name="EMAX">    -10.00000000</i>
   <i name="EFERMI">      0.00000000</i>
  </separator>
  <separator name="writing" >
   <i type="int" name="NWRITE">     2</i>
   <i type="logical" name="LWAVE"> F  </i>
   <i type="logical" name="LDOWNSAMPLE"> F  </i>
   <i type="logical" name="LCHARG"> F  </i>
   <i type="logical" name="LPARD"> F  </i>
   <i type="logical" name="LVTOT"> F  </i>
   <i type="logical" name="LVHAR"> F  </i>
   <i type="logical" name="LELF"> F  </i>
   <i type="logical" name="LOPTICS"> F  </i>
   <v name="STM">      0.00000000      0.00000000      0.00000000      0.00000000      0.00000000      0.00000000      0.00000000</v>
  </separator>
  <separator name="performance" >
   <i type="int" name="NPAR">     4</i>
   <i type="int" name="NSIM">     4</i>
   <i type="int" name="NBLK">    -1</i>
   <i type="logical" name="LPLANE"> T  </i>
   <i type="logical" name="LSCALAPACK"> T  </i>
   <i type="logical" name="LSCAAWARE"> F  </i>
   <i type="logical" name="LSCALU"> F  </i>
   <i type="logical" name="LASYNC"> F  </i>
   <i type="logical" name="LORBITALREAL"> F  </i>
  </separator>
  <separator name="miscellaneous" >
   <i type="int" name="IDIOT">     3</i>
   <i type="int" name="ISPECIAL">     0</i>
   <i type="logical" name="LMUSIC"> F  </i>
   <v name="POMASS">      7.01000000     30.97400000     32.06600000</v>
   <v name="DARWINR">      0.00000000      0.00000000      0.00000000</v>
   <v name="DARWINV">      1.00000000      1.00000000      1.00000000</v>
   <i type="logical" name="LCORR"> T  </i>
  </separator>
  <i type="logical" name="GGA_COMPAT"> T  </i>
  <i type="logical" name="LBERRY"> F  </i>
  <i type="int" name="ICORELEVEL">     0</i>
  <i type="logical" name="LDAU"> F  </i>
  <i type="int" name="I_CONSTRAINED_M">     0</i>
  <separator name="electronic exchange-correlation" >
   <i type="string" name="GGA">--</i>
   <i type="int" name="VOSKOWN">     0</i>
   <i type="logical" name="LHFCALC"> F  </i>
   <i type="string" name="PRECFOCK"></i>
   <i type="logical" name="LSYMGRAD"> F  </i>
   <i type="logical" name="LHFONE"> F  </i>
   <i type="logical" name="LRHFCALC"> F  </i>
   <i type="logical" name="LTHOMAS"> F  </i>
   <i type="logical" name="LMODELHF"> F  </i>
   <i name="ENCUT4O">     -1.00000000</i>
   <i type="int" name="EXXOEP">     0</i>
   <i type="int" name="FOURORBIT">     0</i>
   <i name="AEXX">      0.00000000</i>
   <i name="HFALPHA">      0.00000000</i>
   <i name="MCALPHA">      0.00000000</i>
   <i name="ALDAX">      1.00000000</i>
   <i name="AGGAX">      1.00000000</i>
   <i name="ALDAC">      1.00000000</i>
   <i name="AGGAC">      1.00000000</i>
   <i type="int" name="NKREDX">     1</i>
   <i type="int" name="NKREDY">     1</i>
   <i type="int" name="NKREDZ">     1</i>
   <i type="logical" name="SHIFTRED"> F  </i>
   <i type="logical" name="ODDONLY"> F  </i>
   <i type="logical" name="EVENONLY"> F  </i>
   <i type="int" name="LMAXFOCK">     0</i>
   <i type="int" name="NMAXFOCKAE">     0</i>
   <i type="logical" name="LFOCKAEDFT"> F  </i>
   <i name="HFSCREEN">      0.00000000</i>
   <i name="HFSCREENC">      0.00000000</i>
   <i type="int" name="NBANDSGWLOW">     0</i>
  </separator>
  <separator name="vdW DFT" >
   <i type="logical" name="LUSE_VDW"> F  </i>
   <i name="Zab_VDW">     -0.84910000</i>
   <i name="PARAM1">      0.12340000</i>
   <i name="PARAM2">      1.00000000</i>
   <i name="PARAM3">      0.00000000</i>
  </separator>
  <separator name="model GW" >
   <i type="int" name="MODEL_GW">     0</i>
   <i name="MODEL_EPS0">     10.59943166</i>
   <i name="MODEL_ALPHA">      1.00000000</i>
  </separator>
  <separator name="linear response parameters" >
   <i type="logical" name="LEPSILON"> F  </i>
   <i type="logical" name="LRPA"> F  </i>
   <i type="logical" name="LNABLA"> F  </i>
   <i type="logical" name="LVEL"> F  </i>
   <i type="int" name="KINTER">     0</i>
   <i name="CSHIFT">      0.10000000</i>
   <i name="OMEGAMAX">     -1.00000000</i>
   <i name="DEG_THRESHOLD">      0.00200000</i>
   <i name="RTIME">     -0.10000000</i>
   <i name="WPLASMAI">      0.00000000</i>
   <v name="DFIELD">      0.00000000      0.00000000      0.00000000</v>
   <v name="WPLASMA">      0.00000000      0.00000000      0.00000000      0.00000000      0.00000000      0.00000000      0.00000000      0.00000000      0.00000000</v>
  </separator>
  <separator name="orbital magnetization" >
   <i type="logical" name="NUCIND"> F  </i>
   <v name="MAGPOS">      0.00000000      0.00000000      0.00000000</v>
   <i type="logical" name="LNICSALL"> T  </i>
   <i type="logical" name="ORBITALMAG"> F  </i>
   <i type="logical" name="LMAGBLOCH"> F  </i>
   <i type="logical" name="LCHIMAG"> F  </i>
   <i type="logical" name="LGAUGE"> T  </i>
   <i type="int" name="MAGATOM">     0</i>
   <v name="MAGDIPOL">      0.00000000      0.00000000      0.00000000</v>
   <v name="AVECCONST">      0.00000000      0.00000000      0.00000000</v>
  </separator>
  <separator name="response functions" >
   <i type="logical" name="LADDER"> F  </i>
   <i type="logical" name="LRPAFORCE"> F  </i>
   <i type="logical" name="LFXC"> F  </i>
   <i type="logical" name="LHARTREE"> T  </i>
   <i type="int" name="IBSE">     0</i>
   <v type="int" name="KPOINT">    -1     0     0     0</v>
   <i type="logical" name="LTCTE"> F  </i>
   <i type="logical" name="LTETE"> F  </i>
   <i type="logical" name="LTRIPLET"> F  </i>
   <i type="logical" name="LFXCEPS"> F  </i>
   <i type="logical" name="LFXHEG"> F  </i>
   <i type="int" name="NATURALO">     2</i>
   <i type="logical" name="L2ORDER"> F  </i>
   <i type="logical" name="LMP2LT"> F  </i>
   <i type="logical" name="LUSEW"> F  </i>
   <i name="ENCUTGW">     -2.00000000</i>
   <i name="ENCUTGWSOFT">     -2.00000000</i>
   <i name="ENCUTLF">     -1.00000000</i>
   <i type="int" name="LMAXMP2">    -1</i>
   <i name="SCISSOR">      0.00000000</i>
   <i type="int" name="NOMEGA">     0</i>
   <i type="int" name="NOMEGAR">     0</i>
   <i type="int" name="NBANDSGW">    -1</i>
   <i type="int" name="NBANDSO">    -1</i>
   <i type="int" name="NBANDSV">    -1</i>
   <i type="int" name="NELM">   100</i>
   <i type="int" name="NELMHF">     1</i>
   <i type="int" name="DIM">     3</i>
   <i type="int" name="ANTIRES">     0</i>
   <i name="OMEGAMAX">    -30.00000000</i>
   <i name="OMEGAMIN">    -30.00000000</i>
   <i name="OMEGATL">   -200.00000000</i>
   <i type="int" name="OMEGAGRID">   140</i>
   <i name="CSHIFT">     -0.10000000</i>
   <i type="logical" name="SELFENERGY"> F  </i>
   <i type="logical" name="LSPECTRAL"> F  </i>
   <i type="logical" name="LSPECTRALGW"> F  </i>
   <i type="logical" name="LSINGLES"> F  </i>
   <i type="logical" name="LFERMIGW"> F  </i>
   <i type="logical" name="ODDONLYGW"> F  </i>
   <i type="logical" name="EVENONLYGW"> F  </i>
   <i type="int" name="NKREDLFX">     1</i>
   <i type="int" name="NKREDLFY">     1</i>
   <i type="int" name="NKREDLFZ">     1</i>
   <i type="int" name="MAXMEM">  2800</i>
   <i type="int" name="TELESCOPE">     0</i>
   <i type="int" name="TAUPAR">     1</i>
   <i type="int" name="OMEGAPAR">    -1</i>
   <i name="LAMBDA">      1.00000000</i>
  </separator>
  <separator name="External order field" >
   <i name="OFIELD_KAPPA">      0.00000000</i>
   <v name="OFIELD_K">      0.00000000      0.00000000      0.00000000</v>
   <i name="OFIELD_Q6_NEAR">      0.00000000</i>
   <i name="OFIELD_Q6_FAR">      0.00000000</i>
   <i name="OFIELD_A">      0.00000000</i>
  </separator>
 </parameters>
 <atominfo>
  <atoms>      16 </atoms>
  <types>       3 </types>
  <array name="atoms" >
   <dimension dim="1">ion</dimension>
   <field type="string">element</field>
   <field type="int">atomtype</field>
   <set>
    <rc><c>Li</c><c>   1</c></rc>
    <rc><c>Li</c><c>   1</c></rc>
    <rc><c>Li</c><c>   1</c></rc>
    <rc><c>Li</c><c>   1</c></rc>
    <rc><c>Li</c><c>   1</c></rc>
    <rc><c>Li</c><c>   1</c></rc>
    <rc><c>P </c><c>   2</c></rc>
    <rc><c>P </c><c>   2</c></rc>
    <rc><c>S </c><c>   3</c></rc>
    <rc><c>S </c><c>   3</c></rc>
    <rc><c>S </c><c>   3</c></rc>
    <rc><c>S </c><c>   3</c></rc>
    <rc><c>S </c><c>   3</c></rc>
    <rc><c>S </c><c>   3</c></rc>
    <rc><c>S </c><c>   3</c></rc>
    <rc><c>S </c><c>   3</c></rc>
   </set>
  </array>
  <array name="atomtypes" >
   <dimension dim="1">type</dimension>
   <field type="int">atomspertype</field>
   <field type="string">element</field>
   <field>mass</field>
   <field>valence</field>
   <field type="string">pseudopotential</field>
   <set>
    <rc><c>   6</c><c>Li</c><c>      7.01000000</c><c>      3.00000000</c><c>  PAW Li_sv 10Sep2004                   </c></rc>
    <rc><c>   2</c><c>P </c><c>     30.97400000</c><c>      5.00000000</c><c>  PAW P 26Mar2009                       </c></rc>
    <rc><c>   8</c><c>S </c><c>     32.06600000</c><c>      6.00000000</c><c>  PAW S 27Mar2009                       </c></rc>
   </set>
  </array>
 </atominfo>
 <structure name="initialpos" >
  <crystal>
   <varray name="basis" >
    <v>       6.10653901       0.00000000      -0.07759077 </v>
    <v>       0.00000000       5.92906174       0.00000000 </v>
    <v>       0.00000000       0.00000000       7.80674875 </v>
   </varray>
   <i name="volume">    282.65151095 </i>
   <varray name="rec_basis" >
    <v>       0.16375888       0.00000000       0.00000000 </v>
    <v>      -0.00000000       0.16866075       0.00000000 </v>
    <v>       0.00162759      -0.00000000       0.12809430 </v>
   </varray>
  </crystal>
  <varray name="positions" >
   <v>       0.78432728       0.35848886       0.98841593 </v>
   <v>       0.21567272       0.85848886       0.01158407 </v>
   <v>       0.51349660       0.78926674       0.23274861 </v>
   <v>       0.48650340       0.28926674       0.76725139 </v>
   <v>       0.83413635       0.34785905       0.43018052 </v>
   <v>       0.16586365       0.84785905       0.56981948 </v>
   <v>       0.27217711       0.34073283       0.25971856 </v>
   <v>       0.72782289       0.84073283       0.74028144 </v>
   <v>       0.17674149       0.02788142       0.33422294 </v>
   <v>       0.11379863       0.42619023       0.03852561 </v>
   <v>       0.60162541       0.36352420       0.22057390 </v>
   <v>       0.20249477       0.58869730       0.43164958 </v>
   <v>       0.82325851       0.52788142       0.66577706 </v>
   <v>       0.88620137       0.92619023       0.96147439 </v>
   <v>       0.39837459       0.86352420       0.77942610 </v>
   <v>       0.79750523       0.08869730       0.56835042 </v>
  </varray>
 </structure>
 <calculation>
  <scstep>
   <time name="dav">    0.37    0.37</time>
   <time name="total">    0.38    0.41</time>
   <energy>
    <i name="alphaZ">     69.81373687 </i>
    <i name="ewald">  -2670.85630511 </i>
    <i name="hartreedc">   -680.98217716 </i>
    <i name="XCdc">    182.89168962 </i>
    <i name="pawpsdc">   2494.22442938 </i>
    <i name="pawaedc">  -2541.12215007 </i>
    <i name="eentropy">      0.00000000 </i>
    <i name="bandstr">   -113.72819332 </i>
    <i name="atom">   3769.08782378 </i>
    <i name="e_fr_energy">    509.32885399 </i>
    <i name="e_wo_entrp">    509.32885399 </i>
    <i name="e_0_energy">    509.32885399 </i>
   </energy>
  </scstep>
  <scstep>
   <time name="dav">    0.36    0.36</time>
   <time name="total">    0.36    0.36</time>
   <energy>
    <i name="e_fr_energy">     -2.41784305 </i>
    <i name="e_wo_entrp">     -2.41784305 </i>
    <i name="e_0_energy">     -2.41784305 </i>
   </energy>
  </scstep>
  <scstep>
   <time name="dav">    0.41    0.41</time>
   <time name="total">    0.41    0.41</time>
   <energy>
    <i name="e_fr_energy">    -66.28906669 </i>
    <i name="e_wo_entrp">    -66.28906669 </i>
    <i name="e_0_energy">    -66.28906669 </i>
   </energy>
  </scstep>
  <scstep>
   <time name="dav">    0.52    0.52</time>
   <time name="total">    0.52    0.52</time>
   <energy>
    <i name="e_fr_energy">    -73.70556643 </i>
    <i name="e_wo_entrp">    -73.70556643 </i>
    <i name="e_0_energy">    -73.70556643 </i>
   </energy>
  </scstep>
  <scstep>
   <time name="dav">    0.44    0.44</time>
   <time name="total">    0.47    0.47</time>
   <energy>
    <i name="e_fr_energy">    -74.53102483 </i>
    <i name="e_wo_entrp">    -74.53102483 </i>
    <i name="e_0_energy">    -74.53102483 </i>
   </energy>
  </scstep>
  <scstep>
   <time name="diag">    0.10    0.10</time>
   <time name="diis">    0.14    0.14</time>
   <time name="orth">    0.01    0.01</time>
   <time name="total">    0.28    0.28</time>
   <energy>
    <i name="e_fr_energy">    -72.00593706 </i>
    <i name="e_wo_entrp">    -72.00593706 </i>
    <i name="e_0_energy">    -72.00593706 </i>
   </energy>
  </scstep>
  <scstep>
   <time name="diag">    0.10    0.10</time>
   <time name="diis">    0.15    0.15</time>
   <time name="orth">    0.00    0.01</time>
   <time name="total">    0.29    0.29</time>
   <energy>
    <i name="e_fr_energy">    -71.51831034 </i>
    <i name="e_wo_entrp">    -71.51831034 </i>
    <i name="e_0_energy">    -71.51831034 </i>
   </energy>
  </scstep>
  <scstep>
   <time name="diag">    0.09    0.09</time>
   <time name="diis">    0.17    0.17</time>
   <time name="orth">    0.00    0.00</time>
   <time name="total">    0.30    0.31</time>
   <energy>
    <i name="e_fr_energy">    -71.43968044 </i>
    <i name="e_wo_entrp">    -71.43968044 </i>
    <i name="e_0_energy">    -71.43968044 </i>
   </energy>
  </scstep>
  <scstep>
   <time name="diag">    0.09    0.10</time>
   <time name="diis">    0.18    0.18</time>
   <time name="orth">    0.00    0.01</time>
   <time name="total">    0.32    0.32</time>
   <energy>
    <i name="e_fr_energy">    -71.43362992 </i>
    <i name="e_wo_entrp">    -71.43362992 </i>
    <i name="e_0_energy">    -71.43362992 </i>
   </energy>
  </scstep>
  <scstep>
   <time name="diag">    0.10    0.10</time>
   <time name="diis">    0.20    0.21</time>
   <time name="orth">    0.01    0.01</time>
   <time name="total">    0.34    0.35</time>
   <energy>
    <i name="e_fr_energy">    -71.43424372 </i>
    <i name="e_wo_entrp">    -71.43424372 </i>
    <i name="e_0_energy">    -71.43424372 </i>
   </energy>
  </scstep>
  <scstep>
   <time name="diag">    0.10    0.10</time>
   <time name="diis">    0.19    0.20</time>
   <time name="orth">    0.01    0.01</time>
   <time name="total">    0.33    0.33</time>
   <energy>
    <i name="e_fr_energy">    -71.43477014 </i>
    <i name="e_wo_entrp">    -71.43477014 </i>
    <i name="e_0_energy">    -71.43477014 </i>
   </energy>
  </scstep>
  <scstep>
   <time name="diag">    0.10    0.10</time>
   <time name="diis">    0.19    0.19</time>
   <time name="orth">    0.01    0.01</time>
   <time name="total">    0.32    0.33</time>
   <energy>
    <i name="e_fr_energy">    -71.43501110 </i>
    <i name="e_wo_entrp">    -71.43501110 </i>
    <i name="e_0_energy">    -71.43501110 </i>
   </energy>
  </scstep>
  <scstep>
   <time name="diag">    0.09    0.09</time>
   <time name="diis">    0.17    0.17</time>
   <time name="orth">    0.01    0.01</time>
   <time name="total">    0.30    0.30</time>
   <energy>
    <i name="e_fr_energy">    -71.43514819 </i>
    <i name="e_wo_entrp">    -71.43514819 </i>
    <i name="e_0_energy">    -71.43514819 </i>
   </energy>
  </scstep>
  <scstep>
   <time name="diag">    0.09    0.10</time>
   <time name="diis">    0.18    0.18</time>
   <time name="orth">    0.01    0.01</time>
   <time name="total">    0.31    0.31</time>
   <energy>
    <i name="e_fr_energy">    -71.43522836 </i>
    <i name="e_wo_entrp">    -71.43522836 </i>
    <i name="e_0_energy">    -71.43522836 </i>
   </energy>
  </scstep>
  <scstep>
   <time name="diag">    0.09    0.09</time>
   <time name="diis">    0.14    0.14</time>
   <time name="orth">    0.01    0.01</time>
   <time name="total">    0.28    0.28</time>
   <energy>
    <i name="e_fr_energy">    -71.43526903 </i>
    <i name="e_wo_entrp">    -71.43526903 </i>
    <i name="e_0_energy">    -71.43526903 </i>
   </energy>
  </scstep>
  <scstep>
   <time name="diag">    0.09    0.09</time>
   <time name="diis">    0.15    0.15</time>
   <time name="orth">    0.01    0.01</time>
   <time name="total">    0.28    0.28</time>
   <energy>
    <i name="e_fr_energy">    -71.43528416 </i>
    <i name="e_wo_entrp">    -71.43528416 </i>
    <i name="e_0_energy">    -71.43528416 </i>
   </energy>
  </scstep>
  <scstep>
   <time name="diag">    0.09    0.09</time>
   <time name="diis">    0.16    0.16</time>
   <time name="orth">    0.01    0.01</time>
   <time name="total">    0.26    0.26</time>
   <energy>
    <i name="alphaZ">     69.81373687 </i>
    <i name="ewald">  -2670.85630511 </i>
    <i name="hartreedc">   -720.05067478 </i>
    <i name="XCdc">    186.67691563 </i>
    <i name="pawpsdc">   7795.92675015 </i>
    <i name="pawaedc">  -7845.60733360 </i>
    <i name="eentropy">      0.00000000 </i>
    <i name="bandstr">   -656.42621123 </i>
    <i name="atom">   3769.08782378 </i>
    <i name="e_fr_energy">    -71.43529828 </i>
    <i name="e_wo_entrp">    -71.43529828 </i>
    <i name="e_0_energy">    -71.43529828 </i>
   </energy>
  </scstep>
  <structure>
   <crystal>
    <varray name="basis" >
     <v>       6.10653901       0.00000000      -0.07759077 </v>
     <v>       0.00000000       5.92906174       0.00000000 </v>
     <v>       0.00000000       0.00000000       7.80674875 </v>
    </varray>
    <i name="volume">    282.65151095 </i>
    <varray name="rec_basis" >
     <v>       0.16375888       0.00000000       0.00000000 </v>
     <v>      -0.00000000       0.16866075       0.00000000 </v>
     <v>       0.00162759      -0.00000000       0.12809430 </v>
    </varray>
   </crystal>
   <varray name="positions" >
    <v>       0.78432728       0.35848886       0.98841593 </v>
    <v>       0.21567272       0.85848886       0.01158407 </v>
    <v>       0.51349660       0.78926674       0.23274861 </v>
    <v>       0.48650340       0.28926674       0.76725139 </v>
    <v>       0.83413635       0.34785905       0.43018052 </v>
    <v>       0.16586365       0.84785905       0.56981948 </v>
    <v>       0.27217711       0.34073283       0.25971856 </v>
    <v>       0.72782289       0.84073283       0.74028144 </v>
    <v>       0.17674149       0.02788142       0.33422294 </v>
    <v>       0.11379863       0.42619023       0.03852561 </v>
    <v>       0.60162541       0.36352420       0.22057390 </v>
    <v>       0.20249477       0.58869730       0.43164958 </v>
    <v>       0.82325851       0.52788142       0.66577706 </v>
    <v>       0.88620137       0.92619023       0.96147439 </v>
    <v>       0.39837459       0.86352420       0.77942610 </v>
    <v>       0.79750523       0.08869730       0.56835042 </v>
   </varray>
  </structure>
  <varray name="forces" >
   <v>      -0.09310383      -0.38741257      -0.89795663 </v>
   <v>       0.09310383      -0.38741257       0.89795663 </v>
   <v>       0.37273081      -0.02254264       0.52330319 </v>
   <v>      -0.37273081      -0.02254264      -0.52330319 </v>
   <v>       0.92030047       1.98257999      -1.83852809 </v>
   <v>      -0.92030047       1.98257999       1.83852809 </v>
   <v>      -0.50593481       0.71225964      -0.08043682 </v>
   <v>       0.50593481       0.71225964       0.08043682 </v>
   <v>       1.08238077       0.75725802      -2.27546039 </v>
   <v>       2.10568621       0.37920444       0.00499926 </v>
   <v>      -0.64915281       0.41555364      -0.34522497 </v>
   <v>       0.78427269      -3.83690051      -1.83286813 </v>
   <v>      -1.08238077       0.75725802       2.27546039 </v>
   <v>      -2.10568621       0.37920444      -0.00499926 </v>
   <v>       0.64915281       0.41555364       0.34522497 </v>
   <v>      -0.78427269      -3.83690051       1.83286813 </v>
  </varray>
  <varray name="stress" >
   <v>      41.26131884       0.00000000       0.13647858 </v>
   <v>       0.00000000      45.63013287       0.00000000 </v>
   <v>       0.13647769       0.00000000      70.52305445 </v>
  </varray>
  <energy>
   <i name="e_fr_energy">    -71.43529828 </i>
   <i name="e_wo_entrp">    -71.43529828 </i>
   <i name="e_0_energy">      0.00000000 </i>
  </energy>
  <time name="totalsc">    6.15    6.30</time>
 </calculation>
 <calculation>
  <scstep>
   <time name="dav">    0.32    0.32</time>
   <time name="total">    0.36    0.36</time>
   <energy>
    <i name="alphaZ">     64.28405121 </i>
    <i name="ewald">  -2577.17513633 </i>
    <i name="hartreedc">   -712.23424801 </i>
    <i name="XCdc">    181.82392414 </i>
    <i name="pawpsdc">   7795.83132485 </i>
    <i name="pawaedc">  -7845.51097040 </i>
    <i name="eentropy">      0.00000000 </i>
    <i name="bandstr">   -749.00347208 </i>
    <i name="atom">   3769.08782378 </i>
    <i name="e_fr_energy">    -72.89670284 </i>
    <i name="e_wo_entrp">    -72.89670284 </i>
    <i name="e_0_energy">    -72.89670284 </i>
   </energy>
  </scstep>
  <scstep>
   <time name="diag">    0.09    0.09</time>
   <time name="diis">    0.17    0.17</time>
   <time name="orth">    0.01    0.01</time>
   <time name="total">    0.31    0.31</time>
   <energy>
    <i name="e_fr_energy">    -73.90130298 </i>
    <i name="e_wo_entrp">    -73.90130298 </i>
    <i name="e_0_energy">    -73.90130298 </i>
   </energy>
  </scstep>
  <scstep>
   <time name="diag">    0.09    0.09</time>
   <time name="diis">    0.19    0.20</time>
   <time name="orth">    0.01    0.01</time>
   <time name="total">    0.33    0.33</time>
   <energy>
    <i name="e_fr_energy">    -73.59537633 </i>
    <i name="e_wo_entrp">    -73.59537633 </i>
    <i name="e_0_energy">    -73.59537633 </i>
   </energy>
  </scstep>
  <scstep>
   <time name="diag">    0.09    0.09</time>
   <time name="diis">    0.18    0.18</time>
   <time name="orth">    0.01    0.01</time>
   <time name="total">    0.32    0.32</time>
   <energy>
    <i name="e_fr_energy">    -73.54304419 </i>
    <i name="e_wo_entrp">    -73.54304419 </i>
    <i name="e_0_energy">    -73.54304419 </i>
   </energy>
  </scstep>
  <scstep>
   <time name="diag">    0.09    0.09</time>
   <time name="diis">    0.21    0.21</time>
   <time name="orth">    0.01    0.01</time>
   <time name="total">    0.34    0.35</time>
   <energy>
    <i name="e_fr_energy">    -73.56056467 </i>
    <i name="e_wo_entrp">    -73.56056467 </i>
    <i name="e_0_energy">    -73.56056467 </i>
   </energy>
  </scstep>
  <scstep>
   <time name="diag">    0.10    0.10</time>
   <time name="diis">    0.22    0.22</time>
   <time name="orth">    0.01    0.01</time>
   <time name="total">    0.35    0.35</time>
   <energy>
    <i name="e_fr_energy">    -73.56375820 </i>
    <i name="e_wo_entrp">    -73.56375820 </i>
    <i name="e_0_energy">    -73.56375820 </i>
   </energy>
  </scstep>
  <scstep>
   <time name="diag">    0.09    0.09</time>
   <time name="diis">    0.22    0.23</time>
   <time name="orth">    0.01    0.01</time>
   <time name="total">    0.36    0.36</time>
   <energy>
    <i name="e_fr_energy">    -73.56642360 </i>
    <i name="e_wo_entrp">    -73.56642360 </i>
    <i name="e_0_energy">    -73.56642360 </i>
   </energy>
  </scstep>
  <scstep>
   <time name="diag">    0.09    0.09</time>
   <time name="diis">    0.22    0.22</time>
   <time name="orth">    0.01    0.01</time>
   <time name="total">    0.35    0.36</time>
   <energy>
    <i name="e_fr_energy">    -73.56849737 </i>
    <i name="e_wo_entrp">    -73.56849737 </i>
    <i name="e_0_energy">    -73.56849737 </i>
   </energy>
  </scstep>
  <scstep>
   <time name="diag">    0.09    0.09</time>
   <time name="diis">    0.22    0.22</time>
   <time name="orth">    0.01    0.01</time>
   <time name="total">    0.35    0.35</time>
   <energy>
    <i name="e_fr_energy">    -73.56974292 </i>
    <i name="e_wo_entrp">    -73.56974292 </i>
    <i name="e_0_energy">    -73.56974292 </i>
   </energy>
  </scstep>
  <scstep>
   <time name="diag">    0.09    0.09</time>
   <time name="diis">    0.22    0.22</time>
   <time name="orth">    0.01    0.01</time>
   <time name="total">    0.35    0.36</time>
   <energy>
    <i name="e_fr_energy">    -73.57048442 </i>
    <i name="e_wo_entrp">    -73.57048442 </i>
    <i name="e_0_energy">    -73.57048442 </i>
   </energy>
  </scstep>
  <scstep>
   <time name="diag">    0.09    0.09</time>
   <time name="diis">    0.21    0.21</time>
   <time name="orth">    0.01    0.01</time>
   <time name="total">    0.34    0.35</time>
   <energy>
    <i name="e_fr_energy">    -73.57098101 </i>
    <i name="e_wo_entrp">    -73.57098101 </i>
    <i name="e_0_energy">    -73.57098101 </i>
   </energy>
  </scstep>
  <scstep>
   <time name="diag">    0.09    0.09</time>
   <time name="diis">    0.21    0.21</time>
   <time name="orth">    0.01    0.01</time>
   <time name="total">    0.34    0.35</time>
   <energy>
    <i name="e_fr_energy">    -73.57125920 </i>
    <i name="e_wo_entrp">    -73.57125920 </i>
    <i name="e_0_energy">    -73.57125920 </i>
   </energy>
  </scstep>
  <scstep>
   <time name="diag">    0.09    0.09</time>
   <time name="diis">    0.21    0.21</time>
   <time name="orth">    0.01    0.01</time>
   <time name="total">    0.34    0.34</time>
   <energy>
    <i name="e_fr_energy">    -73.57145738 </i>
    <i name="e_wo_entrp">    -73.57145738 </i>
    <i name="e_0_energy">    -73.57145738 </i>
   </energy>
  </scstep>
  <scstep>
   <time name="diag">    0.09    0.09</time>
   <time name="diis">    0.20    0.20</time>
   <time name="orth">    0.01    0.01</time>
   <time name="total">    0.33    0.34</time>
   <energy>
    <i name="e_fr_energy">    -73.57156392 </i>
    <i name="e_wo_entrp">    -73.57156392 </i>
    <i name="e_0_energy">    -73.57156392 </i>
   </energy>
  </scstep>
  <scstep>
   <time name="diag">    0.09    0.09</time>
   <time name="diis">    0.19    0.19</time>
   <time name="orth">    0.01    0.01</time>
   <time name="total">    0.32    0.33</time>
   <energy>
    <i name="e_fr_energy">    -73.57165004 </i>
    <i name="e_wo_entrp">    -73.57165004 </i>
    <i name="e_0_energy">    -73.57165004 </i>
   </energy>
  </scstep>
  <scstep>
   <time name="diag">    0.09    0.09</time>
   <time name="diis">    0.17    0.17</time>
   <time name="orth">    0.01    0.01</time>
   <time name="total">    0.30    0.31</time>
   <energy>
    <i name="e_fr_energy">    -73.57169792 </i>
    <i name="e_wo_entrp">    -73.57169792 </i>
    <i name="e_0_energy">    -73.57169792 </i>
   </energy>
  </scstep>
  <scstep>
   <time name="diag">    0.09    0.09</time>
   <time name="diis">    0.16    0.16</time>
   <time name="orth">    0.01    0.01</time>
   <time name="total">    0.30    0.30</time>
   <energy>
    <i name="e_fr_energy">    -73.57172714 </i>
    <i name="e_wo_entrp">    -73.57172714 </i>
    <i name="e_0_energy">    -73.57172714 </i>
   </energy>
  </scstep>
  <scstep>
   <time name="diag">    0.09    0.09</time>
   <time name="diis">    0.16    0.16</time>
   <time name="orth">    0.01    0.01</time>
   <time name="total">    0.30    0.30</time>
   <energy>
    <i name="e_fr_energy">    -73.57174351 </i>
    <i name="e_wo_entrp">    -73.57174351 </i>
    <i name="e_0_energy">    -73.57174351 </i>
   </energy>
  </scstep>
  <scstep>
   <time name="diag">    0.10    0.10</time>
   <time name="diis">    0.15    0.15</time>
   <time name="orth">    0.01    0.01</time>
   <time name="total">    0.26    0.26</time>
   <energy>
    <i name="alphaZ">     64.28405121 </i>
    <i name="ewald">  -2577.17513633 </i>
    <i name="hartreedc">   -762.27596765 </i>
    <i name="XCdc">    185.32743836 </i>
    <i name="pawpsdc">   7953.81937584 </i>
    <i name="pawaedc">  -8004.75157904 </i>
    <i name="eentropy">      0.00000000 </i>
    <i name="bandstr">   -701.88775810 </i>
    <i name="atom">   3769.08782378 </i>
    <i name="e_fr_energy">    -73.57175192 </i>
    <i name="e_wo_entrp">    -73.57175192 </i>
    <i name="e_0_energy">    -73.57175192 </i>
   </energy>
  </scstep>
  <structure>
   <crystal>
    <varray name="basis" >
     <v>       6.24055973       0.00000000      -0.08005813 </v>
     <v>       0.00000000       6.07297130       0.00000000 </v>
     <v>       0.00056674       0.00000000       8.09960416 </v>
    </varray>
    <i name="volume">    306.96506894 </i>
    <varray name="rec_basis" >
     <v>       0.16024189      -0.00000000      -0.00001121 </v>
     <v>      -0.00000000       0.16466404      -0.00000000 </v>
     <v>       0.00158386      -0.00000000       0.12346271 </v>
    </varray>
   </crystal>
   <varray name="positions" >
    <v>       0.78359174       0.35533662       0.98285960 </v>
    <v>       0.21640826       0.85533662       0.01714040 </v>
    <v>       0.51644123       0.78908332       0.23601169 </v>
    <v>       0.48355877       0.28908332       0.76398831 </v>
    <v>       0.84140687       0.36399059       0.41889140 </v>
    <v>       0.15859313       0.86399059       0.58110860 </v>
    <v>       0.26818015       0.34652824       0.25918177 </v>
    <v>       0.73181985       0.84652824       0.74081823 </v>
    <v>       0.18529247       0.03404295       0.32024647 </v>
    <v>       0.13043390       0.42927568       0.03872184 </v>
    <v>       0.59649700       0.36690541       0.21838958 </v>
    <v>       0.20869065       0.55747781       0.42038475 </v>
    <v>       0.81470753       0.53404295       0.67975353 </v>
    <v>       0.86956610       0.92927568       0.96127816 </v>
    <v>       0.40350300       0.86690541       0.78161042 </v>
    <v>       0.79130935       0.05747781       0.57961525 </v>
   </varray>
  </structure>
  <varray name="forces" >
   <v>       0.43343717      -0.20645675      -0.30727113 </v>
   <v>      -0.43343717      -0.20645675       0.30727113 </v>
   <v>       0.31953996      -0.05244999       0.38048292 </v>
   <v>      -0.31953996      -0.05244999      -0.38048292 </v>
   <v>       0.46026224       0.31675280       0.13996436 </v>
   <v>      -0.46026224       0.31675280      -0.13996436 </v>
   <v>       1.05117937      -1.68157656      -2.77807465 </v>
   <v>      -1.05117937      -1.68157656       2.77807465 </v>
   <v>       0.51900262      -0.20785771      -0.95655668 </v>
   <v>       0.87233457       0.22401464      -0.13405626 </v>
   <v>      -0.33899185       0.29462516      -0.32031274 </v>
   <v>      -0.73701650       1.31294841       2.46414208 </v>
   <v>      -0.51900262      -0.20785771       0.95655668 </v>
   <v>      -0.87233457       0.22401464       0.13405626 </v>
   <v>       0.33899185       0.29462516       0.32031274 </v>
   <v>       0.73701650       1.31294841      -2.46414208 </v>
  </varray>
  <varray name="stress" >
   <v>       5.22001498       0.00000000      -2.80562341 </v>
   <v>       0.00000000      12.46206814       0.00000000 </v>
   <v>      -2.80562337       0.00000000      41.23559071 </v>
  </varray>
  <energy>
   <i name="e_fr_energy">    -73.57175192 </i>
   <i name="e_wo_entrp">    -73.57175192 </i>
   <i name="e_0_energy">      0.00000000 </i>
  </energy>
  <time name="totalsc">    6.65    6.77</time>
 </calculation>
 <calculation>
  <scstep>
   <time name="dav">    0.39    0.39</time>
   <time name="total">    0.43    0.43</time>
   <energy>
    <i name="alphaZ">     64.46494986 </i>
    <i name="ewald">  -2581.01583170 </i>
    <i name="hartreedc">   -762.04137439 </i>
    <i name="XCdc">    185.48435185 </i>
    <i name="pawpsdc">   7953.67812218 </i>
    <i name="pawaedc">  -8004.60930561 </i>
    <i name="eentropy">      0.00000000 </i>
    <i name="bandstr">   -698.62391827 </i>
    <i name="atom">   3769.08782378 </i>
    <i name="e_fr_energy">    -73.57518230 </i>
    <i name="e_wo_entrp">    -73.57518230 </i>
    <i name="e_0_energy">    -73.57518230 </i>
   </energy>
  </scstep>
  <scstep>
   <time name="diag">    0.09    0.09</time>
   <time name="diis">    0.17    0.18</time>
   <time name="orth">    0.01    0.01</time>
   <time name="total">    0.30    0.31</time>
   <energy>
    <i name="e_fr_energy">    -73.57488194 </i>
    <i name="e_wo_entrp">    -73.57488194 </i>
    <i name="e_0_energy">    -73.57488194 </i>
   </energy>
  </scstep>
  <scstep>
   <time name="diag">    0.09    0.09</time>
   <time name="diis">    0.19    0.19</time>
   <time name="orth">    0.01    0.01</time>
   <time name="total">    0.32    0.32</time>
   <energy>
    <i name="e_fr_energy">    -73.57425796 </i>
    <i name="e_wo_entrp">    -73.57425796 </i>
    <i name="e_0_energy">    -73.57425796 </i>
   </energy>
  </scstep>
  <scstep>
   <time name="diag">    0.09    0.09</time>
   <time name="diis">    0.20    0.20</time>
   <time name="orth">    0.01    0.01</time>
   <time name="total">    0.33    0.33</time>
   <energy>
    <i name="e_fr_energy">    -73.57424468 </i>
    <i name="e_wo_entrp">    -73.57424468 </i>
    <i name="e_0_energy">    -73.57424468 </i>
   </energy>
  </scstep>
  <scstep>
   <time name="diag">    0.09    0.09</time>
   <time name="diis">    0.18    0.18</time>
   <time name="orth">    0.01    0.01</time>
   <time name="total">    0.28    0.28</time>
   <energy>
    <i name="alphaZ">     64.46494986 </i>
    <i name="ewald">  -2581.01583170 </i>
    <i name="hartreedc">   -760.26856763 </i>
    <i name="XCdc">    185.36262712 </i>
    <i name="pawpsdc">   7940.18745421 </i>
    <i name="pawaedc">  -7991.06398788 </i>
    <i name="eentropy">      0.00000000 </i>
    <i name="bandstr">   -700.32871171 </i>
    <i name="atom">   3769.08782378 </i>
    <i name="e_fr_energy">    -73.57424395 </i>
    <i name="e_wo_entrp">    -73.57424395 </i>
    <i name="e_0_energy">    -73.57424395 </i>
   </energy>
  </scstep>
  <structure>
   <crystal>
    <varray name="basis" >
     <v>       6.23593137       0.00000000      -0.07997292 </v>
     <v>       0.00000000       6.06800143       0.00000000 </v>
     <v>       0.00054717       0.00000000       8.08949050 </v>
    </varray>
    <i name="volume">    306.10367736 </i>
    <varray name="rec_basis" >
     <v>       0.16036083      -0.00000000      -0.00001085 </v>
     <v>      -0.00000000       0.16479891      -0.00000000 </v>
     <v>       0.00158533      -0.00000000       0.12361707 </v>
    </varray>
   </crystal>
   <varray name="positions" >
    <v>       0.78361658       0.35544291       0.98304455 </v>
    <v>       0.21638342       0.85544291       0.01695545 </v>
    <v>       0.51634174       0.78908950       0.23590306 </v>
    <v>       0.48365826       0.28908950       0.76409694 </v>
    <v>       0.84116114       0.36344670       0.41926715 </v>
    <v>       0.15883886       0.86344670       0.58073285 </v>
    <v>       0.26831522       0.34633284       0.25919965 </v>
    <v>       0.73168478       0.84633284       0.74080035 </v>
    <v>       0.18500347       0.03383521       0.32071167 </v>
    <v>       0.12987174       0.42917165       0.03871526 </v>
    <v>       0.59667029       0.36679141       0.21846230 </v>
    <v>       0.20848124       0.55853042       0.42075969 </v>
    <v>       0.81499653       0.53383521       0.67928833 </v>
    <v>       0.87012826       0.92917165       0.96128474 </v>
    <v>       0.40332971       0.86679141       0.78153770 </v>
    <v>       0.79151876       0.05853042       0.57924031 </v>
   </varray>
  </structure>
  <varray name="forces" >
   <v>       0.42094456      -0.21111263      -0.32102126 </v>
   <v>      -0.42094456      -0.21111263       0.32102126 </v>
   <v>       0.32079932      -0.05187889       0.38580182 </v>
   <v>      -0.32079932      -0.05187889      -0.38580182 </v>
   <v>       0.47253361       0.33493295       0.11307798 </v>
   <v>      -0.47253361       0.33493295      -0.11307798 </v>
   <v>       0.98943430      -1.56117629      -2.64147131 </v>
   <v>      -0.98943430      -1.56117629       2.64147131 </v>
   <v>       0.53539061      -0.18017134      -0.98694366 </v>
   <v>       0.90435058       0.22528199      -0.13066151 </v>
   <v>      -0.35019918       0.29638730      -0.32448023 </v>
   <v>      -0.68309443       1.14773691       2.30660058 </v>
   <v>      -0.53539061      -0.18017134       0.98694366 </v>
   <v>      -0.90435058       0.22528199       0.13066151 </v>
   <v>       0.35019918       0.29638730       0.32448023 </v>
   <v>       0.68309443       1.14773691      -2.30660058 </v>
  </varray>
  <varray name="stress" >
   <v>       5.91628907       0.00000000      -2.49111201 </v>
   <v>       0.00000000      12.16624400       0.00000000 </v>
   <v>      -2.49111219       0.00000000      40.90933400 </v>
  </varray>
  <energy>
   <i name="e_fr_energy">    -73.57424395 </i>
   <i name="e_wo_entrp">    -73.57424395 </i>
   <i name="e_0_energy">      0.00000000 </i>
  </energy>
  <time name="totalsc">    2.06    2.12</time>
 </calculation>
 <calculation>
  <scstep>
   <time name="dav">    0.32    0.32</time>
   <time name="total">    0.36    0.37</time>
   <energy>
    <i name="alphaZ">     60.03252189 </i>
    <i name="ewald">  -2522.53996299 </i>
    <i name="hartreedc">   -740.14416776 </i>
    <i name="XCdc">    180.65219878 </i>
    <i name="pawpsdc">   7937.63627922 </i>
    <i name="pawaedc">  -7988.51110132 </i>
    <i name="eentropy">      0.00000000 </i>
    <i name="bandstr">   -770.37894542 </i>
    <i name="atom">   3769.08782378 </i>
    <i name="e_fr_energy">    -74.16535383 </i>
    <i name="e_wo_entrp">    -74.16535383 </i>
    <i name="e_0_energy">    -74.16535383 </i>
   </energy>
  </scstep>
  <scstep>
   <time name="diag">    0.09    0.09</time>
   <time name="diis">    0.17    0.18</time>
   <time name="orth">    0.01    0.01</time>
   <time name="total">    0.31    0.31</time>
   <energy>
    <i name="e_fr_energy">    -74.49665205 </i>
    <i name="e_wo_entrp">    -74.49665205 </i>
    <i name="e_0_energy">    -74.49665205 </i>
   </energy>
  </scstep>
  <scstep>
   <time name="diag">    0.09    0.09</time>
   <time name="diis">    0.21    0.21</time>
   <time name="orth">    0.01    0.01</time>
   <time name="total">    0.34    0.34</time>
   <energy>
    <i name="e_fr_energy">    -74.30454461 </i>
    <i name="e_wo_entrp">    -74.30454461 </i>
    <i name="e_0_energy">    -74.30454461 </i>
   </energy>
  </scstep>
  <scstep>
   <time name="diag">    0.09    0.09</time>
   <time name="diis">    0.18    0.18</time>
   <time name="orth">    0.01    0.01</time>
   <time name="total">    0.32    0.32</time>
   <energy>
    <i name="e_fr_energy">    -74.20386340 </i>
    <i name="e_wo_entrp">    -74.20386340 </i>
    <i name="e_0_energy">    -74.20386340 </i>
   </energy>
  </scstep>
  <scstep>
   <time name="diag">    0.09    0.09</time>
   <time name="diis">    0.21    0.21</time>
   <time name="orth">    0.01    0.01</time>
   <time name="total">    0.34    0.34</time>
   <energy>
    <i name="e_fr_energy">    -74.20732633 </i>
    <i name="e_wo_entrp">    -74.20732633 </i>
    <i name="e_0_energy">    -74.20732633 </i>
   </energy>
  </scstep>
  <scstep>
   <time name="diag">    0.09    0.09</time>
   <time name="diis">    0.21    0.21</time>
   <time name="orth">    0.01    0.01</time>
   <time name="total">    0.35    0.35</time>
   <energy>
    <i name="e_fr_energy">    -74.20852131 </i>
    <i name="e_wo_entrp">    -74.20852131 </i>
    <i name="e_0_energy">    -74.20852131 </i>
   </energy>
  </scstep>
  <scstep>
   <time name="diag">    0.09    0.09</time>
   <time name="diis">    0.22    0.22</time>
   <time name="orth">    0.01    0.01</time>
   <time name="total">    0.35    0.35</time>
   <energy>
    <i name="e_fr_energy">    -74.21022875 </i>
    <i name="e_wo_entrp">    -74.21022875 </i>
    <i name="e_0_energy">    -74.21022875 </i>
   </energy>
  </scstep>
  <scstep>
   <time name="diag">    0.09    0.09</time>
   <time name="diis">    0.21    0.21</time>
   <time name="orth">    0.01    0.01</time>
   <time name="total">    0.34    0.34</time>
   <energy>
    <i name="e_fr_energy">    -74.21200789 </i>
    <i name="e_wo_entrp">    -74.21200789 </i>
    <i name="e_0_energy">    -74.21200789 </i>
   </energy>
  </scstep>
  <scstep>
   <time name="diag">    0.09    0.09</time>
   <time name="diis">    0.21    0.21</time>
   <time name="orth">    0.01    0.01</time>
   <time name="total">    0.35    0.35</time>
   <energy>
    <i name="e_fr_energy">    -74.21302921 </i>
    <i name="e_wo_entrp">    -74.21302921 </i>
    <i name="e_0_energy">    -74.21302921 </i>
   </energy>
  </scstep>
  <scstep>
   <time name="diag">    0.09    0.10</time>
   <time name="diis">    0.21    0.21</time>
   <time name="orth">    0.01    0.01</time>
   <time name="total">    0.34    0.35</time>
   <energy>
    <i name="e_fr_energy">    -74.21364501 </i>
    <i name="e_wo_entrp">    -74.21364501 </i>
    <i name="e_0_energy">    -74.21364501 </i>
   </energy>
  </scstep>
  <scstep>
   <time name="diag">    0.09    0.09</time>
   <time name="diis">    0.20    0.20</time>
   <time name="orth">    0.01    0.01</time>
   <time name="total">    0.34    0.34</time>
   <energy>
    <i name="e_fr_energy">    -74.21404524 </i>
    <i name="e_wo_entrp">    -74.21404524 </i>
    <i name="e_0_energy">    -74.21404524 </i>
   </energy>
  </scstep>
  <scstep>
   <time name="diag">    0.09    0.09</time>
   <time name="diis">    0.20    0.20</time>
   <time name="orth">    0.01    0.01</time>
   <time name="total">    0.34    0.34</time>
   <energy>
    <i name="e_fr_energy">    -74.21431819 </i>
    <i name="e_wo_entrp">    -74.21431819 </i>
    <i name="e_0_energy">    -74.21431819 </i>
   </energy>
  </scstep>
  <scstep>
   <time name="diag">    0.09    0.09</time>
   <time name="diis">    0.20    0.21</time>
   <time name="orth">    0.01    0.01</time>
   <time name="total">    0.34    0.34</time>
   <energy>
    <i name="e_fr_energy">    -74.21443296 </i>
    <i name="e_wo_entrp">    -74.21443296 </i>
    <i name="e_0_energy">    -74.21443296 </i>
   </energy>
  </scstep>
  <scstep>
   <time name="diag">    0.10    0.10</time>
   <time name="diis">    0.19    0.20</time>
   <time name="orth">    0.01    0.01</time>
   <time name="total">    0.33    0.33</time>
   <energy>
    <i name="e_fr_energy">    -74.21454520 </i>
    <i name="e_wo_entrp">    -74.21454520 </i>
    <i name="e_0_energy">    -74.21454520 </i>
   </energy>
  </scstep>
  <scstep>
   <time name="diag">    0.09    0.09</time>
   <time name="diis">    0.19    0.19</time>
   <time name="orth">    0.01    0.01</time>
   <time name="total">    0.32    0.33</time>
   <energy>
    <i name="e_fr_energy">    -74.21460490 </i>
    <i name="e_wo_entrp">    -74.21460490 </i>
    <i name="e_0_energy">    -74.21460490 </i>
   </energy>
  </scstep>
  <scstep>
   <time name="diag">    0.09    0.09</time>
   <time name="diis">    0.16    0.16</time>
   <time name="orth">    0.01    0.01</time>
   <time name="total">    0.30    0.30</time>
   <energy>
    <i name="e_fr_energy">    -74.21464386 </i>
    <i name="e_wo_entrp">    -74.21464386 </i>
    <i name="e_0_energy">    -74.21464386 </i>
   </energy>
  </scstep>
  <scstep>
   <time name="diag">    0.09    0.09</time>
   <time name="diis">    0.15    0.15</time>
   <time name="orth">    0.01    0.01</time>
   <time name="total">    0.29    0.29</time>
   <energy>
    <i name="e_fr_energy">    -74.21466117 </i>
    <i name="e_wo_entrp">    -74.21466117 </i>
    <i name="e_0_energy">    -74.21466117 </i>
   </energy>
  </scstep>
  <scstep>
   <time name="diag">    0.10    0.11</time>
   <time name="diis">    0.16    0.17</time>
   <time name="orth">    0.01    0.01</time>
   <time name="total">    0.28    0.28</time>
   <energy>
    <i name="alphaZ">     60.03252189 </i>
    <i name="ewald">  -2522.53996299 </i>
    <i name="hartreedc">   -780.68310991 </i>
    <i name="XCdc">    183.50649932 </i>
    <i name="pawpsdc">   7223.61349881 </i>
    <i name="pawaedc">  -7274.67663165 </i>
    <i name="eentropy">      0.00000000 </i>
    <i name="bandstr">   -732.55531327 </i>
    <i name="atom">   3769.08782378 </i>
    <i name="e_fr_energy">    -74.21467402 </i>
    <i name="e_wo_entrp">    -74.21467402 </i>
    <i name="e_0_energy">    -74.21467402 </i>
   </energy>
  </scstep>
  <structure>
   <crystal>
    <varray name="basis" >
     <v>       6.32015572       0.00000000      -0.09190421 </v>
     <v>       0.00000000       6.17803709       0.00000000 </v>
     <v>      -0.01070362       0.00000000       8.41851223 </v>
    </varray>
    <i name="volume">    328.70446869 </i>
    <varray name="rec_basis" >
     <v>       0.15822687      -0.00000000       0.00020118 </v>
     <v>      -0.00000000       0.16186371      -0.00000000 </v>
     <v>       0.00172735      -0.00000000       0.11878803 </v>
    </varray>
   </crystal>
   <varray name="positions" >
    <v>       0.78651942       0.35235817       0.97870680 </v>
    <v>       0.21348058       0.85235817       0.02129320 </v>
    <v>       0.52013349       0.78859739       0.23966210 </v>
    <v>       0.47986651       0.28859739       0.76033790 </v>
    <v>       0.84806947       0.37334731       0.41495769 </v>
    <v>       0.15193053       0.87334731       0.58504231 </v>
    <v>       0.27411639       0.33661353       0.24339224 </v>
    <v>       0.72588361       0.83661353       0.75660776 </v>
    <v>       0.19297262       0.03518422       0.30869835 </v>
    <v>       0.14431895       0.43233823       0.03809797 </v>
    <v>       0.59166814       0.37065242       0.21554337 </v>
    <v>       0.20602552       0.55354936       0.42936418 </v>
    <v>       0.80702738       0.53518422       0.69130165 </v>
    <v>       0.85568105       0.93233823       0.96190203 </v>
    <v>       0.40833186       0.87065242       0.78445663 </v>
    <v>       0.79397448       0.05354936       0.57063582 </v>
   </varray>
  </structure>
  <varray name="forces" >
   <v>       0.45097888      -0.13022009      -0.05176862 </v>
   <v>      -0.45097888      -0.13022009       0.05176862 </v>
   <v>       0.19085038      -0.06892165       0.49628805 </v>
   <v>      -0.19085038      -0.06892165      -0.49628805 </v>
   <v>       0.27017644       0.22909382       0.38603796 </v>
   <v>      -0.27017644       0.22909382      -0.38603796 </v>
   <v>       0.12114766       1.16188508       1.18122730 </v>
   <v>      -0.12114766       1.16188508      -1.18122730 </v>
   <v>       0.30736064      -0.52819526      -0.67521663 </v>
   <v>       0.01992405       0.30937975      -0.62727532 </v>
   <v>       0.58763678       0.34668097      -0.36939497 </v>
   <v>       0.03236486      -1.31970261      -0.82087431 </v>
   <v>      -0.30736064      -0.52819526       0.67521663 </v>
   <v>      -0.01992405       0.30937975       0.62727532 </v>
   <v>      -0.58763678       0.34668097       0.36939497 </v>
   <v>      -0.03236486      -1.31970261       0.82087431 </v>
  </varray>
  <varray name="stress" >
   <v>      -5.65444076      -0.00000000      13.62827970 </v>
   <v>      -0.00000000     -38.20772013      -0.00000000 </v>
   <v>      13.62827970      -0.00000000     -26.89814510 </v>
  </varray>
  <energy>
   <i name="e_fr_energy">    -74.21467402 </i>
   <i name="e_wo_entrp">    -74.21467402 </i>
   <i name="e_0_energy">      0.00000000 </i>
  </energy>
  <time name="totalsc">    6.31    6.43</time>
 </calculation>
 <calculation>
  <scstep>
   <time name="dav">    0.32    0.32</time>
   <time name="total">    0.36    0.36</time>
   <energy>
    <i name="alphaZ">     61.24983586 </i>
    <i name="ewald">  -2540.56571669 </i>
    <i name="hartreedc">   -785.53541658 </i>
    <i name="XCdc">    184.81990909 </i>
    <i name="pawpsdc">   7223.55955475 </i>
    <i name="pawaedc">  -7274.62018578 </i>
    <i name="eentropy">      0.00000000 </i>
    <i name="bandstr">   -712.33363104 </i>
    <i name="atom">   3769.08782378 </i>
    <i name="e_fr_energy">    -74.33782660 </i>
    <i name="e_wo_entrp">    -74.33782660 </i>
    <i name="e_0_energy">    -74.33782660 </i>
   </energy>
  </scstep>
  <scstep>
   <time name="diag">    0.09    0.09</time>
   <time name="diis">    0.17    0.17</time>
   <time name="orth">    0.01    0.01</time>
   <time name="total">    0.30    0.30</time>
   <energy>
    <i name="e_fr_energy">    -74.33110530 </i>
    <i name="e_wo_entrp">    -74.33110530 </i>
    <i name="e_0_energy">    -74.33110530 </i>
   </energy>
  </scstep>
  <scstep>
   <time name="diag">    0.09    0.09</time>
   <time name="diis">    0.20    0.20</time>
   <time name="orth">    0.01    0.01</time>
   <time name="total">    0.33    0.33</time>
   <energy>
    <i name="e_fr_energy">    -74.30459444 </i>
    <i name="e_wo_entrp">    -74.30459444 </i>
    <i name="e_0_energy">    -74.30459444 </i>
   </energy>
  </scstep>
  <scstep>
   <time name="diag">    0.09    0.09</time>
   <time name="diis">    0.20    0.21</time>
   <time name="orth">    0.01    0.01</time>
   <time name="total">    0.34    0.34</time>
   <energy>
    <i name="e_fr_energy">    -74.30196423 </i>
    <i name="e_wo_entrp">    -74.30196423 </i>
    <i name="e_0_energy">    -74.30196423 </i>
   </energy>
  </scstep>
  <scstep>
   <time name="diag">    0.09    0.09</time>
   <time name="diis">    0.21    0.21</time>
   <time name="orth">    0.01    0.01</time>
   <time name="total">    0.34    0.35</time>
   <energy>
    <i name="e_fr_energy">    -74.30185704 </i>
    <i name="e_wo_entrp">    -74.30185704 </i>
    <i name="e_0_energy">    -74.30185704 </i>
   </energy>
  </scstep>
  <scstep>
   <time name="diag">    0.10    0.10</time>
   <time name="diis">    0.21    0.21</time>
   <time name="orth">    0.01    0.01</time>
   <time name="total">    0.34    0.35</time>
   <energy>
    <i name="e_fr_energy">    -74.30224894 </i>
    <i name="e_wo_entrp">    -74.30224894 </i>
    <i name="e_0_energy">    -74.30224894 </i>
   </energy>
  </scstep>
  <scstep>
   <time name="diag">    0.09    0.09</time>
   <time name="diis">    0.20    0.21</time>
   <time name="orth">    0.01    0.01</time>
   <time name="total">    0.34    0.34</time>
   <energy>
    <i name="e_fr_energy">    -74.30246092 </i>
    <i name="e_wo_entrp">    -74.30246092 </i>
    <i name="e_0_energy">    -74.30246092 </i>
   </energy>
  </scstep>
  <scstep>
   <time name="diag">    0.09    0.09</time>
   <time name="diis">    0.19    0.19</time>
   <time name="orth">    0.01    0.01</time>
   <time name="total">    0.32    0.32</time>
   <energy>
    <i name="e_fr_energy">    -74.30257100 </i>
    <i name="e_wo_entrp">    -74.30257100 </i>
    <i name="e_0_energy">    -74.30257100 </i>
   </energy>
  </scstep>
  <scstep>
   <time name="diag">    0.09    0.09</time>
   <time name="diis">    0.19    0.19</time>
   <time name="orth">    0.01    0.01</time>
   <time name="total">    0.32    0.32</time>
   <energy>
    <i name="e_fr_energy">    -74.30263173 </i>
    <i name="e_wo_entrp">    -74.30263173 </i>
    <i name="e_0_energy">    -74.30263173 </i>
   </energy>
  </scstep>
  <scstep>
   <time name="diag">    0.09    0.09</time>
   <time name="diis">    0.17    0.17</time>
   <time name="orth">    0.01    0.01</time>
   <time name="total">    0.30    0.30</time>
   <energy>
    <i name="e_fr_energy">    -74.30266445 </i>
    <i name="e_wo_entrp">    -74.30266445 </i>
    <i name="e_0_energy">    -74.30266445 </i>
   </energy>
  </scstep>
  <scstep>
   <time name="diag">    0.09    0.09</time>
   <time name="diis">    0.16    0.16</time>
   <time name="orth">    0.01    0.01</time>
   <time name="total">    0.26    0.27</time>
   <energy>
    <i name="alphaZ">     61.24983586 </i>
    <i name="ewald">  -2540.56571669 </i>
    <i name="hartreedc">   -773.58341214 </i>
    <i name="XCdc">    183.97812243 </i>
    <i name="pawpsdc">   7365.67666086 </i>
    <i name="pawaedc">  -7416.67414025 </i>
    <i name="eentropy">      0.00000000 </i>
    <i name="bandstr">   -723.47185246 </i>
    <i name="atom">   3769.08782378 </i>
    <i name="e_fr_energy">    -74.30267860 </i>
    <i name="e_wo_entrp">    -74.30267860 </i>
    <i name="e_0_energy">    -74.30267860 </i>
   </energy>
  </scstep>
  <structure>
   <crystal>
    <varray name="basis" >
     <v>       6.29616947       0.00000000      -0.08850630 </v>
     <v>       0.00000000       6.14670004       0.00000000 </v>
     <v>      -0.00749951       0.00000000       8.32481014 </v>
    </varray>
    <i name="volume">    322.17160966 </i>
    <varray name="rec_basis" >
     <v>       0.15882874      -0.00000000       0.00014308 </v>
     <v>      -0.00000000       0.16268892      -0.00000000 </v>
     <v>       0.00168861      -0.00000000       0.12012438 </v>
    </varray>
   </crystal>
   <varray name="positions" >
    <v>       0.78570585       0.35322102       0.97989284 </v>
    <v>       0.21429415       0.85322102       0.02010716 </v>
    <v>       0.51906619       0.78873504       0.23863201 </v>
    <v>       0.48093381       0.28873504       0.76136799 </v>
    <v>       0.84613036       0.37057794       0.41613453 </v>
    <v>       0.15386964       0.87057794       0.58386547 </v>
    <v>       0.27249401       0.33933219       0.24771607 </v>
    <v>       0.72750599       0.83933219       0.75228393 </v>
    <v>       0.19073919       0.03480688       0.31198309 </v>
    <v>       0.14025965       0.43145248       0.03826167 </v>
    <v>       0.59307515       0.36957243       0.21634399 </v>
    <v>       0.20671136       0.55494265       0.42701033 </v>
    <v>       0.80926081       0.53480688       0.68801691 </v>
    <v>       0.85974035       0.93145248       0.96173833 </v>
    <v>       0.40692485       0.86957243       0.78365601 </v>
    <v>       0.79328864       0.05494265       0.57298967 </v>
   </varray>
  </structure>
  <varray name="forces" >
   <v>       0.44529500      -0.15188480      -0.11181767 </v>
   <v>      -0.44529500      -0.15188480       0.11181767 </v>
   <v>       0.22264178      -0.06415231       0.46896573 </v>
   <v>      -0.22264178      -0.06415231      -0.46896573 </v>
   <v>       0.31968959       0.26988875       0.33157207 </v>
   <v>      -0.31968959       0.26988875      -0.33157207 </v>
   <v>       0.28170020       0.73666498       0.41138321 </v>
   <v>      -0.28170020       0.73666498      -0.41138321 </v>
   <v>       0.37284935      -0.44384331      -0.74017881 </v>
   <v>       0.25876599       0.28332669      -0.47885361 </v>
   <v>       0.33678630       0.33431646      -0.36700587 </v>
   <v>      -0.09034256      -0.96431646      -0.24520696 </v>
   <v>      -0.37284935      -0.44384331       0.74017881 </v>
   <v>      -0.25876599       0.28332669       0.47885361 </v>
   <v>      -0.33678630       0.33431646       0.36700587 </v>
   <v>       0.09034256      -0.96431646       0.24520696 </v>
  </varray>
  <varray name="stress" >
   <v>      -3.56949681      -0.00000000      10.13615834 </v>
   <v>      -0.00000000     -29.47425576      -0.00000000 </v>
   <v>      10.13615821      -0.00000000     -12.68634419 </v>
  </varray>
  <energy>
   <i name="e_fr_energy">    -74.30267860 </i>
   <i name="e_wo_entrp">    -74.30267860 </i>
   <i name="e_0_energy">      0.00000000 </i>
  </energy>
  <time name="totalsc">    3.95    4.04</time>
 </calculation>
 <calculation>
  <scstep>
   <time name="dav">    0.33    0.33</time>
   <time name="total">    0.37    0.38</time>
   <energy>
    <i name="alphaZ">     61.35680484 </i>
    <i name="ewald">  -2541.85143055 </i>
    <i name="hartreedc">   -773.33685155 </i>
    <i name="XCdc">    184.12977153 </i>
    <i name="pawpsdc">   7366.20349998 </i>
    <i name="pawaedc">  -7417.19908298 </i>
    <i name="eentropy">      0.00000000 </i>
    <i name="bandstr">   -722.90547812 </i>
    <i name="atom">   3769.08782378 </i>
    <i name="e_fr_energy">    -74.51494306 </i>
    <i name="e_wo_entrp">    -74.51494306 </i>
    <i name="e_0_energy">    -74.51494306 </i>
   </energy>
  </scstep>
  <scstep>
   <time name="diag">    0.09    0.09</time>
   <time name="diis">    0.17    0.17</time>
   <time name="orth">    0.01    0.01</time>
   <time name="total">    0.30    0.30</time>
   <energy>
    <i name="e_fr_energy">    -74.75826596 </i>
    <i name="e_wo_entrp">    -74.75826596 </i>
    <i name="e_0_energy">    -74.75826596 </i>
   </energy>
  </scstep>
  <scstep>
   <time name="diag">    0.09    0.09</time>
   <time name="diis">    0.22    0.22</time>
   <time name="orth">    0.01    0.01</time>
   <time name="total">    0.35    0.35</time>
   <energy>
    <i name="e_fr_energy">    -74.74826268 </i>
    <i name="e_wo_entrp">    -74.74826268 </i>
    <i name="e_0_energy">    -74.74826268 </i>
   </energy>
  </scstep>
  <scstep>
   <time name="diag">    0.09    0.09</time>
   <time name="diis">    0.19    0.20</time>
   <time name="orth">    0.01    0.01</time>
   <time name="total">    0.33    0.33</time>
   <energy>
    <i name="e_fr_energy">    -74.73649999 </i>
    <i name="e_wo_entrp">    -74.73649999 </i>
    <i name="e_0_energy">    -74.73649999 </i>
   </energy>
  </scstep>
  <scstep>
   <time name="diag">    0.09    0.09</time>
   <time name="diis">    0.21    0.22</time>
   <time name="orth">    0.01    0.01</time>
   <time name="total">    0.35    0.35</time>
   <energy>
    <i name="e_fr_energy">    -74.73896359 </i>
    <i name="e_wo_entrp">    -74.73896359 </i>
    <i name="e_0_energy">    -74.73896359 </i>
   </energy>
  </scstep>
  <scstep>
   <time name="diag">    0.09    0.09</time>
   <time name="diis">    0.21    0.21</time>
   <time name="orth">    0.01    0.01</time>
   <time name="total">    0.34    0.35</time>
   <energy>
    <i name="e_fr_energy">    -74.74019568 </i>
    <i name="e_wo_entrp">    -74.74019568 </i>
    <i name="e_0_energy">    -74.74019568 </i>
   </energy>
  </scstep>
  <scstep>
   <time name="diag">    0.09    0.09</time>
   <time name="diis">    0.21    0.21</time>
   <time name="orth">    0.01    0.01</time>
   <time name="total">    0.35    0.35</time>
   <energy>
    <i name="e_fr_energy">    -74.74056995 </i>
    <i name="e_wo_entrp">    -74.74056995 </i>
    <i name="e_0_energy">    -74.74056995 </i>
   </energy>
  </scstep>
  <scstep>
   <time name="diag">    0.09    0.09</time>
   <time name="diis">    0.20    0.20</time>
   <time name="orth">    0.01    0.01</time>
   <time name="total">    0.33    0.34</time>
   <energy>
    <i name="e_fr_energy">    -74.74136016 </i>
    <i name="e_wo_entrp">    -74.74136016 </i>
    <i name="e_0_energy">    -74.74136016 </i>
   </energy>
  </scstep>
  <scstep>
   <time name="diag">    0.09    0.09</time>
   <time name="diis">    0.20    0.20</time>
   <time name="orth">    0.01    0.01</time>
   <time name="total">    0.33    0.34</time>
   <energy>
    <i name="e_fr_energy">    -74.74172577 </i>
    <i name="e_wo_entrp">    -74.74172577 </i>
    <i name="e_0_energy">    -74.74172577 </i>
   </energy>
  </scstep>
  <scstep>
   <time name="diag">    0.09    0.09</time>
   <time name="diis">    0.20    0.20</time>
   <time name="orth">    0.01    0.01</time>
   <time name="total">    0.33    0.33</time>
   <energy>
    <i name="e_fr_energy">    -74.74192359 </i>
    <i name="e_wo_entrp">    -74.74192359 </i>
    <i name="e_0_energy">    -74.74192359 </i>
   </energy>
  </scstep>
  <scstep>
   <time name="diag">    0.09    0.09</time>
   <time name="diis">    0.19    0.19</time>
   <time name="orth">    0.01    0.01</time>
   <time name="total">    0.32    0.32</time>
   <energy>
    <i name="e_fr_energy">    -74.74205131 </i>
    <i name="e_wo_entrp">    -74.74205131 </i>
    <i name="e_0_energy">    -74.74205131 </i>
   </energy>
  </scstep>
  <scstep>
   <time name="diag">    0.09    0.09</time>
   <time name="diis">    0.18    0.19</time>
   <time name="orth">    0.01    0.01</time>
   <time name="total">    0.32    0.32</time>
   <energy>
    <i name="e_fr_energy">    -74.74212264 </i>
    <i name="e_wo_entrp">    -74.74212264 </i>
    <i name="e_0_energy">    -74.74212264 </i>
   </energy>
  </scstep>
  <scstep>
   <time name="diag">    0.09    0.09</time>
   <time name="diis">    0.17    0.17</time>
   <time name="orth">    0.01    0.01</time>
   <time name="total">    0.30    0.31</time>
   <energy>
    <i name="e_fr_energy">    -74.74216949 </i>
    <i name="e_wo_entrp">    -74.74216949 </i>
    <i name="e_0_energy">    -74.74216949 </i>
   </energy>
  </scstep>
  <scstep>
   <time name="diag">    0.09    0.10</time>
   <time name="diis">    0.16    0.16</time>
   <time name="orth">    0.01    0.01</time>
   <time name="total">    0.29    0.29</time>
   <energy>
    <i name="e_fr_energy">    -74.74219169 </i>
    <i name="e_wo_entrp">    -74.74219169 </i>
    <i name="e_0_energy">    -74.74219169 </i>
   </energy>
  </scstep>
  <scstep>
   <time name="diag">    0.09    0.09</time>
   <time name="diis">    0.15    0.15</time>
   <time name="orth">    0.01    0.01</time>
   <time name="total">    0.26    0.26</time>
   <energy>
    <i name="alphaZ">     61.35680484 </i>
    <i name="ewald">  -2541.85143055 </i>
    <i name="hartreedc">   -773.23119832 </i>
    <i name="XCdc">    184.08673859 </i>
    <i name="pawpsdc">   7435.03862114 </i>
    <i name="pawaedc">  -7486.06353550 </i>
    <i name="eentropy">      0.00000000 </i>
    <i name="bandstr">   -723.16602895 </i>
    <i name="atom">   3769.08782378 </i>
    <i name="e_fr_energy">    -74.74220495 </i>
    <i name="e_wo_entrp">    -74.74220495 </i>
    <i name="e_0_energy">    -74.74220495 </i>
   </energy>
  </scstep>
  <structure>
   <crystal>
    <varray name="basis" >
     <v>       6.31152115       0.00000000      -0.05579157 </v>
     <v>       0.00000000       6.08134052       0.00000000 </v>
     <v>       0.03649596       0.00000000       8.37875274 </v>
    </varray>
    <i name="volume">    321.60993819 </i>
    <varray name="rec_basis" >
     <v>       0.15843431      -0.00000000      -0.00069010 </v>
     <v>      -0.00000000       0.16443743      -0.00000000 </v>
     <v>       0.00105497      -0.00000000       0.11934491 </v>
    </varray>
   </crystal>
   <varray name="positions" >
    <v>       0.78986631       0.35107976       0.97790226 </v>
    <v>       0.21013369       0.85107976       0.02209774 </v>
    <v>       0.52193234       0.78810000       0.24242471 </v>
    <v>       0.47806766       0.28810000       0.75757529 </v>
    <v>       0.85072748       0.37585101       0.41655128 </v>
    <v>       0.14927252       0.87585101       0.58344872 </v>
    <v>       0.27644517       0.34151791       0.24480255 </v>
    <v>       0.72355483       0.84151791       0.75519745 </v>
    <v>       0.19606122       0.03199264       0.30406811 </v>
    <v>       0.14692875       0.43458707       0.03548515 </v>
    <v>       0.59382101       0.37331253       0.21342170 </v>
    <v>       0.20524654       0.54619969       0.42848580 </v>
    <v>       0.80393878       0.53199264       0.69593189 </v>
    <v>       0.85307125       0.93458707       0.96451485 </v>
    <v>       0.40617899       0.87331253       0.78657830 </v>
    <v>       0.79475346       0.04619969       0.57151420 </v>
   </varray>
  </structure>
  <varray name="forces" >
   <v>       0.41744506      -0.12013814      -0.10266159 </v>
   <v>      -0.41744506      -0.12013814       0.10266159 </v>
   <v>       0.19835249       0.00007680       0.35951274 </v>
   <v>      -0.19835249       0.00007680      -0.35951274 </v>
   <v>       0.11811805       0.19174550       0.33856573 </v>
   <v>      -0.11811805       0.19174550      -0.33856573 </v>
   <v>       0.09323205       0.57808708       0.13424688 </v>
   <v>      -0.09323205       0.57808708      -0.13424688 </v>
   <v>       0.24982605      -0.61469217      -0.48252171 </v>
   <v>       0.17292072       0.25437508      -0.27776475 </v>
   <v>       0.69382700       0.38656558      -0.17909898 </v>
   <v>      -0.13468354      -0.67601974      -0.08793874 </v>
   <v>      -0.24982605      -0.61469217       0.48252171 </v>
   <v>      -0.17292072       0.25437508       0.27776475 </v>
   <v>      -0.69382700       0.38656558       0.17909898 </v>
[...]
       <r>   -9.3759    1.0000 </r>
       <r>   -5.1952    1.0000 </r>
       <r>   -5.1106    1.0000 </r>
       <r>   -2.4012    1.0000 </r>
       <r>   -2.3339    1.0000 </r>
       <r>   -2.1695    1.0000 </r>
       <r>   -2.1564    1.0000 </r>
       <r>   -2.0311    1.0000 </r>
       <r>   -2.0051    1.0000 </r>
       <r>   -0.2941    1.0000 </r>
       <r>   -0.1799    1.0000 </r>
       <r>   -0.0261    1.0000 </r>
       <r>    0.1094    1.0000 </r>
       <r>    0.4997    1.0000 </r>
       <r>    0.5962    1.0000 </r>
       <r>    0.8426    1.0000 </r>
       <r>    0.9627    1.0000 </r>
       <r>    1.0709    1.0000 </r>
       <r>    1.1822    1.0000 </r>
       <r>    1.5390    1.0000 </r>
       <r>    1.6209    1.0000 </r>
       <r>    1.7900    1.0000 </r>
       <r>    1.8626    1.0000 </r>
       <r>    2.0411    1.0000 </r>
       <r>    2.1008    1.0000 </r>
       <r>    5.3616    0.0000 </r>
       <r>    5.6152    0.0000 </r>
       <r>    6.4757    0.0000 </r>
       <r>    6.5909    0.0000 </r>
       <r>    6.7476    0.0000 </r>
       <r>    6.9144    0.0000 </r>
       <r>    7.0651    0.0000 </r>
       <r>    7.1864    0.0000 </r>
       <r>    8.2125    0.0000 </r>
       <r>    8.4823    0.0000 </r>
      </set>
      <set comment="kpoint 10">
       <r>  -41.0822    1.0000 </r>
       <r>  -41.0822    1.0000 </r>
       <r>  -40.6694    1.0000 </r>
       <r>  -40.6691    1.0000 </r>
       <r>  -40.6630    1.0000 </r>
       <r>  -40.6627    1.0000 </r>
       <r>  -12.5086    1.0000 </r>
       <r>  -12.4829    1.0000 </r>
       <r>   -9.5985    1.0000 </r>
       <r>   -9.5466    1.0000 </r>
       <r>   -9.5337    1.0000 </r>
       <r>   -9.4470    1.0000 </r>
       <r>   -9.4052    1.0000 </r>
       <r>   -9.3789    1.0000 </r>
       <r>   -5.1948    1.0000 </r>
       <r>   -5.1105    1.0000 </r>
       <r>   -2.3986    1.0000 </r>
       <r>   -2.3332    1.0000 </r>
       <r>   -2.1677    1.0000 </r>
       <r>   -2.1614    1.0000 </r>
       <r>   -2.0321    1.0000 </r>
       <r>   -2.0038    1.0000 </r>
       <r>   -0.2913    1.0000 </r>
       <r>   -0.1725    1.0000 </r>
       <r>   -0.0315    1.0000 </r>
       <r>    0.1030    1.0000 </r>
       <r>    0.4955    1.0000 </r>
       <r>    0.5954    1.0000 </r>
       <r>    0.8451    1.0000 </r>
       <r>    0.9679    1.0000 </r>
       <r>    1.0683    1.0000 </r>
       <r>    1.1779    1.0000 </r>
       <r>    1.5428    1.0000 </r>
       <r>    1.6229    1.0000 </r>
       <r>    1.7921    1.0000 </r>
       <r>    1.8597    1.0000 </r>
       <r>    2.0436    1.0000 </r>
       <r>    2.0964    1.0000 </r>
       <r>    5.3604    0.0000 </r>
       <r>    5.6206    0.0000 </r>
       <r>    6.4737    0.0000 </r>
       <r>    6.5821    0.0000 </r>
       <r>    6.7608    0.0000 </r>
       <r>    6.9255    0.0000 </r>
       <r>    7.0597    0.0000 </r>
       <r>    7.1814    0.0000 </r>
       <r>    8.2252    0.0000 </r>
       <r>    8.4871    0.0000 </r>
      </set>
     </set>
    </set>
   </array>
  </eigenvalues>
  <separator name="orbital magnetization" >
   <v name="MAGDIPOLOUT">      0.00000000      0.00000000      0.00000000</v>
  </separator>
  <dos>
   <i name="efermi">      2.30341836 </i>
   <total>
    <array>
     <dimension dim="1">gridpoints</dimension>
     <dimension dim="2">spin</dimension>
     <field>energy</field>
     <field>total</field>
     <field>integrated</field>
     <set>
      <set comment="spin 1">
       <r>   -43.5721     0.0000     0.0000 </r>
       <r>   -43.3895     0.0000     0.0000 </r>
       <r>   -43.2069     0.0000     0.0000 </r>
       <r>   -43.0243     0.0000     0.0000 </r>
       <r>   -42.8417     0.0000     0.0000 </r>
       <r>   -42.6591     0.0000     0.0000 </r>
       <r>   -42.4766     0.0000     0.0000 </r>
       <r>   -42.2940     0.0000     0.0000 </r>
       <r>   -42.1114     0.0000     0.0000 </r>
       <r>   -41.9288     0.0000     0.0000 </r>
       <r>   -41.7462     0.0000     0.0000 </r>
       <r>   -41.5636     0.0000     0.0000 </r>
       <r>   -41.3810     0.0000     0.0000 </r>
       <r>   -41.1984     0.0000     0.0000 </r>
       <r>   -41.0158     0.0000     4.0000 </r>
       <r>   -40.8333     0.0000     4.0000 </r>
       <r>   -40.6507     0.0000    12.0000 </r>
       <r>   -40.4681     0.0000    12.0000 </r>
       <r>   -40.2855     0.0000    12.0000 </r>
       <r>   -40.1029     0.0000    12.0000 </r>
       <r>   -39.9203     0.0000    12.0000 </r>
       <r>   -39.7377     0.0000    12.0000 </r>
       <r>   -39.5551     0.0000    12.0000 </r>
       <r>   -39.3725     0.0000    12.0000 </r>
       <r>   -39.1899     0.0000    12.0000 </r>
       <r>   -39.0074     0.0000    12.0000 </r>
       <r>   -38.8248     0.0000    12.0000 </r>
       <r>   -38.6422     0.0000    12.0000 </r>
       <r>   -38.4596     0.0000    12.0000 </r>
       <r>   -38.2770     0.0000    12.0000 </r>
       <r>   -38.0944     0.0000    12.0000 </r>
       <r>   -37.9118     0.0000    12.0000 </r>
       <r>   -37.7292     0.0000    12.0000 </r>
       <r>   -37.5466     0.0000    12.0000 </r>
       <r>   -37.3641     0.0000    12.0000 </r>
       <r>   -37.1815     0.0000    12.0000 </r>
       <r>   -36.9989     0.0000    12.0000 </r>
       <r>   -36.8163     0.0000    12.0000 </r>
       <r>   -36.6337     0.0000    12.0000 </r>
       <r>   -36.4511     0.0000    12.0000 </r>
       <r>   -36.2685     0.0000    12.0000 </r>
       <r>   -36.0859     0.0000    12.0000 </r>
       <r>   -35.9033     0.0000    12.0000 </r>
       <r>   -35.7208     0.0000    12.0000 </r>
       <r>   -35.5382     0.0000    12.0000 </r>
       <r>   -35.3556     0.0000    12.0000 </r>
       <r>   -35.1730     0.0000    12.0000 </r>
       <r>   -34.9904     0.0000    12.0000 </r>
       <r>   -34.8078     0.0000    12.0000 </r>
       <r>   -34.6252     0.0000    12.0000 </r>
       <r>   -34.4426     0.0000    12.0000 </r>
       <r>   -34.2600     0.0000    12.0000 </r>
       <r>   -34.0775     0.0000    12.0000 </r>
       <r>   -33.8949     0.0000    12.0000 </r>
       <r>   -33.7123     0.0000    12.0000 </r>
       <r>   -33.5297     0.0000    12.0000 </r>
       <r>   -33.3471     0.0000    12.0000 </r>
       <r>   -33.1645     0.0000    12.0000 </r>
       <r>   -32.9819     0.0000    12.0000 </r>
       <r>   -32.7993     0.0000    12.0000 </r>
       <r>   -32.6167     0.0000    12.0000 </r>
       <r>   -32.4342     0.0000    12.0000 </r>
       <r>   -32.2516     0.0000    12.0000 </r>
       <r>   -32.0690     0.0000    12.0000 </r>
       <r>   -31.8864     0.0000    12.0000 </r>
       <r>   -31.7038     0.0000    12.0000 </r>
       <r>   -31.5212     0.0000    12.0000 </r>
       <r>   -31.3386     0.0000    12.0000 </r>
       <r>   -31.1560     0.0000    12.0000 </r>
       <r>   -30.9734     0.0000    12.0000 </r>
       <r>   -30.7909     0.0000    12.0000 </r>
       <r>   -30.6083     0.0000    12.0000 </r>
       <r>   -30.4257     0.0000    12.0000 </r>
       <r>   -30.2431     0.0000    12.0000 </r>
       <r>   -30.0605     0.0000    12.0000 </r>
       <r>   -29.8779     0.0000    12.0000 </r>
       <r>   -29.6953     0.0000    12.0000 </r>
       <r>   -29.5127     0.0000    12.0000 </r>
       <r>   -29.3301     0.0000    12.0000 </r>
       <r>   -29.1476     0.0000    12.0000 </r>
       <r>   -28.9650     0.0000    12.0000 </r>
       <r>   -28.7824     0.0000    12.0000 </r>
       <r>   -28.5998     0.0000    12.0000 </r>
       <r>   -28.4172     0.0000    12.0000 </r>
       <r>   -28.2346     0.0000    12.0000 </r>
       <r>   -28.0520     0.0000    12.0000 </r>
       <r>   -27.8694     0.0000    12.0000 </r>
       <r>   -27.6868     0.0000    12.0000 </r>
       <r>   -27.5042     0.0000    12.0000 </r>
       <r>   -27.3217     0.0000    12.0000 </r>
       <r>   -27.1391     0.0000    12.0000 </r>
       <r>   -26.9565     0.0000    12.0000 </r>
       <r>   -26.7739     0.0000    12.0000 </r>
       <r>   -26.5913     0.0000    12.0000 </r>
       <r>   -26.4087     0.0000    12.0000 </r>
       <r>   -26.2261     0.0000    12.0000 </r>
       <r>   -26.0435     0.0000    12.0000 </r>
       <r>   -25.8609     0.0000    12.0000 </r>
       <r>   -25.6784     0.0000    12.0000 </r>
       <r>   -25.4958     0.0000    12.0000 </r>
       <r>   -25.3132     0.0000    12.0000 </r>
       <r>   -25.1306     0.0000    12.0000 </r>
       <r>   -24.9480     0.0000    12.0000 </r>
       <r>   -24.7654     0.0000    12.0000 </r>
       <r>   -24.5828     0.0000    12.0000 </r>
       <r>   -24.4002     0.0000    12.0000 </r>
       <r>   -24.2176     0.0000    12.0000 </r>
       <r>   -24.0351     0.0000    12.0000 </r>
       <r>   -23.8525     0.0000    12.0000 </r>
       <r>   -23.6699     0.0000    12.0000 </r>
       <r>   -23.4873     0.0000    12.0000 </r>
       <r>   -23.3047     0.0000    12.0000 </r>
       <r>   -23.1221     0.0000    12.0000 </r>
       <r>   -22.9395     0.0000    12.0000 </r>
       <r>   -22.7569     0.0000    12.0000 </r>
       <r>   -22.5743     0.0000    12.0000 </r>
       <r>   -22.3918     0.0000    12.0000 </r>
       <r>   -22.2092     0.0000    12.0000 </r>
       <r>   -22.0266     0.0000    12.0000 </r>
       <r>   -21.8440     0.0000    12.0000 </r>
       <r>   -21.6614     0.0000    12.0000 </r>
       <r>   -21.4788     0.0000    12.0000 </r>
       <r>   -21.2962     0.0000    12.0000 </r>
       <r>   -21.1136     0.0000    12.0000 </r>
       <r>   -20.9310     0.0000    12.0000 </r>
       <r>   -20.7485     0.0000    12.0000 </r>
       <r>   -20.5659     0.0000    12.0000 </r>
       <r>   -20.3833     0.0000    12.0000 </r>
       <r>   -20.2007     0.0000    12.0000 </r>
       <r>   -20.0181     0.0000    12.0000 </r>
       <r>   -19.8355     0.0000    12.0000 </r>
       <r>   -19.6529     0.0000    12.0000 </r>
       <r>   -19.4703     0.0000    12.0000 </r>
       <r>   -19.2877     0.0000    12.0000 </r>
       <r>   -19.1052     0.0000    12.0000 </r>
       <r>   -18.9226     0.0000    12.0000 </r>
       <r>   -18.7400     0.0000    12.0000 </r>
       <r>   -18.5574     0.0000    12.0000 </r>
       <r>   -18.3748     0.0000    12.0000 </r>
       <r>   -18.1922     0.0000    12.0000 </r>
       <r>   -18.0096     0.0000    12.0000 </r>
       <r>   -17.8270     0.0000    12.0000 </r>
       <r>   -17.6444     0.0000    12.0000 </r>
       <r>   -17.4618     0.0000    12.0000 </r>
       <r>   -17.2793     0.0000    12.0000 </r>
       <r>   -17.0967     0.0000    12.0000 </r>
       <r>   -16.9141     0.0000    12.0000 </r>
       <r>   -16.7315     0.0000    12.0000 </r>
       <r>   -16.5489     0.0000    12.0000 </r>
       <r>   -16.3663     0.0000    12.0000 </r>
       <r>   -16.1837     0.0000    12.0000 </r>
       <r>   -16.0011     0.0000    12.0000 </r>
       <r>   -15.8185     0.0000    12.0000 </r>
       <r>   -15.6360     0.0000    12.0000 </r>
       <r>   -15.4534     0.0000    12.0000 </r>
       <r>   -15.2708     0.0000    12.0000 </r>
       <r>   -15.0882     0.0000    12.0000 </r>
       <r>   -14.9056     0.0000    12.0000 </r>
       <r>   -14.7230     0.0000    12.0000 </r>
       <r>   -14.5404     0.0000    12.0000 </r>
       <r>   -14.3578     0.0000    12.0000 </r>
       <r>   -14.1752     0.0000    12.0000 </r>
       <r>   -13.9927     0.0000    12.0000 </r>
       <r>   -13.8101     0.0000    12.0000 </r>
       <r>   -13.6275     0.0000    12.0000 </r>
       <r>   -13.4449     0.0000    12.0000 </r>
       <r>   -13.2623     0.0000    12.0000 </r>
       <r>   -13.0797     0.0000    12.0000 </r>
       <r>   -12.8971     0.0000    12.0000 </r>
       <r>   -12.7145     0.0000    12.0000 </r>
       <r>   -12.5319    36.2406    13.1791 </r>
       <r>   -12.3494     0.0000    16.0000 </r>
       <r>   -12.1668     0.0000    16.0000 </r>
       <r>   -11.9842     0.0000    16.0000 </r>
       <r>   -11.8016     0.0000    16.0000 </r>
       <r>   -11.6190     0.0000    16.0000 </r>
       <r>   -11.4364     0.0000    16.0000 </r>
       <r>   -11.2538     0.0000    16.0000 </r>
       <r>   -11.0712     0.0000    16.0000 </r>
       <r>   -10.8886     0.0000    16.0000 </r>
       <r>   -10.7061     0.0000    16.0000 </r>
       <r>   -10.5235     0.0000    16.0000 </r>
       <r>   -10.3409     0.0000    16.0000 </r>
       <r>   -10.1583     0.0000    16.0000 </r>
       <r>    -9.9757     0.0000    16.0000 </r>
       <r>    -9.7931     0.0000    16.0000 </r>
       <r>    -9.6105    59.4563    16.5519 </r>
       <r>    -9.4279    45.0106    22.3727 </r>
       <r>    -9.2453     0.0000    28.0000 </r>
       <r>    -9.0628     0.0000    28.0000 </r>
       <r>    -8.8802     0.0000    28.0000 </r>
       <r>    -8.6976     0.0000    28.0000 </r>
       <r>    -8.5150     0.0000    28.0000 </r>
       <r>    -8.3324     0.0000    28.0000 </r>
       <r>    -8.1498     0.0000    28.0000 </r>
       <r>    -7.9672     0.0000    28.0000 </r>
       <r>    -7.7846     0.0000    28.0000 </r>
       <r>    -7.6020     0.0000    28.0000 </r>
       <r>    -7.4195     0.0000    28.0000 </r>
       <r>    -7.2369     0.0000    28.0000 </r>
       <r>    -7.0543     0.0000    28.0000 </r>
       <r>    -6.8717     0.0000    28.0000 </r>
       <r>    -6.6891     0.0000    28.0000 </r>
       <r>    -6.5065     0.0000    28.0000 </r>
       <r>    -6.3239     0.0000    28.0000 </r>
       <r>    -6.1413     0.0000    28.0000 </r>
       <r>    -5.9587     0.0000    28.0000 </r>
       <r>    -5.7761     0.0000    28.0000 </r>
       <r>    -5.5936     0.0585    28.0006 </r>
       <r>    -5.4110     4.0783    28.2106 </r>
       <r>    -5.2284     6.6276    29.7489 </r>
       <r>    -5.0458     0.0000    32.0000 </r>
       <r>    -4.8632     0.0000    32.0000 </r>
       <r>    -4.6806     0.0000    32.0000 </r>
       <r>    -4.4980     0.0000    32.0000 </r>
       <r>    -4.3154     0.0000    32.0000 </r>
       <r>    -4.1328     0.0000    32.0000 </r>
       <r>    -3.9503     0.0000    32.0000 </r>
       <r>    -3.7677     0.0000    32.0000 </r>
       <r>    -3.5851     0.0000    32.0000 </r>
       <r>    -3.4025     0.0000    32.0000 </r>
       <r>    -3.2199     0.0000    32.0000 </r>
       <r>    -3.0373     0.0000    32.0000 </r>
       <r>    -2.8547     0.0000    32.0000 </r>
       <r>    -2.6721     0.8412    32.0038 </r>
       <r>    -2.4895    11.9690    33.3542 </r>
       <r>    -2.3070    11.4458    36.4671 </r>
       <r>    -2.1244    20.4224    40.1160 </r>
       <r>    -1.9418     0.0000    44.0000 </r>
       <r>    -1.7592     0.0000    44.0000 </r>
       <r>    -1.5766     0.0000    44.0000 </r>
       <r>    -1.3940     0.0000    44.0000 </r>
       <r>    -1.2114     0.0000    44.0000 </r>
       <r>    -1.0288     0.0000    44.0000 </r>
       <r>    -0.8462     0.0000    44.0000 </r>
       <r>    -0.6637     0.0000    44.0000 </r>
       <r>    -0.4811     0.0000    44.0000 </r>
       <r>    -0.2985     0.0000    44.0000 </r>
       <r>    -0.1159    16.1019    46.5674 </r>
       <r>     0.0667    14.6732    49.5164 </r>
       <r>     0.2493     5.7593    51.5841 </r>
       <r>     0.4319     9.2032    52.8878 </r>
       <r>     0.6145    13.0460    54.9587 </r>
       <r>     0.7971     1.5320    56.0179 </r>
       <r>     0.9796    35.3351    58.5752 </r>
       <r>     1.1622    10.6763    61.2548 </r>
       <r>     1.3448     8.9084    63.5868 </r>
       <r>     1.5274    13.1970    64.7200 </r>
       <r>     1.7100     7.2406    67.9069 </r>
       <r>     1.8926    28.1234    70.9167 </r>
       <r>     2.0752    21.5652    74.4434 </r>
       <r>     2.2578     0.0000    76.0000 </r>
       <r>     2.4404     0.0000    76.0000 </r>
       <r>     2.6229     0.0000    76.0000 </r>
       <r>     2.8055     0.0000    76.0000 </r>
       <r>     2.9881     0.0000    76.0000 </r>
       <r>     3.1707     0.0000    76.0000 </r>
       <r>     3.3533     0.0000    76.0000 </r>
       <r>     3.5359     0.0000    76.0000 </r>
       <r>     3.7185     0.0000    76.0000 </r>
       <r>     3.9011     0.0000    76.0000 </r>
       <r>     4.0837     0.0000    76.0000 </r>
       <r>     4.2663     0.0000    76.0000 </r>
       <r>     4.4488     0.0000    76.0000 </r>
       <r>     4.6314     0.0000    76.0000 </r>
       <r>     4.8140     0.0000    76.0000 </r>
       <r>     4.9966     0.0000    76.0000 </r>
       <r>     5.1792     2.8322    76.3368 </r>
       <r>     5.3618     5.9439    76.9982 </r>
       <r>     5.5444     4.8230    77.9895 </r>
       <r>     5.7270     4.6678    78.9294 </r>
       <r>     5.9096     2.9079    79.6206 </r>
       <r>     6.0921     1.1498    80.0316 </r>
       <r>     6.2747     2.0171    80.2779 </r>
       <r>     6.4573    15.1704    81.5949 </r>
       <r>     6.6399     1.1777    84.0728 </r>
       <r>     6.8225    13.0129    85.8240 </r>
       <r>     7.0051     5.3360    88.1678 </r>
       <r>     7.1877    18.3987    90.6244 </r>
       <r>     7.3703     0.0000    92.0000 </r>
       <r>     7.5529     0.0000    92.0000 </r>
       <r>     7.7354     0.0000    92.0000 </r>
       <r>     7.9180     0.0000    92.0000 </r>
       <r>     8.1006     2.7584    92.0383 </r>
       <r>     8.2832     5.4233    93.8297 </r>
       <r>     8.4658     0.9470    94.0243 </r>
       <r>     8.6484     1.9927    95.9456 </r>
       <r>     8.8310     0.0000    96.0000 </r>
       <r>     9.0136     0.0000    96.0000 </r>
       <r>     9.1962     0.0000    96.0000 </r>
       <r>     9.3787     0.0000    96.0000 </r>
       <r>     9.5613     0.0000    96.0000 </r>
       <r>     9.7439     0.0000    96.0000 </r>
       <r>     9.9265     0.0000    96.0000 </r>
       <r>    10.1091     0.0000    96.0000 </r>
       <r>    10.2917     0.0000    96.0000 </r>
       <r>    10.4743     0.0000    96.0000 </r>
       <r>    10.6569     0.0000    96.0000 </r>
       <r>    10.8395     0.0000    96.0000 </r>
       <r>    11.0220     0.0000    96.0000 </r>
       <r>    11.2046     0.0000    96.0000 </r>
      </set>
     </set>
    </array>
   </total>
  </dos>
 </calculation>
 <structure name="finalpos" >
  <crystal>
   <varray name="basis" >
    <v>       6.30349059       0.00000000      -0.06046617 </v>
    <v>       0.00000000       5.99506939       0.00000000 </v>
    <v>       0.04482386       0.00000000       7.61099576 </v>
   </varray>
   <i name="volume">    287.63473942 </i>
   <varray name="rec_basis" >
    <v>       0.15863330      -0.00000000      -0.00093425 </v>
    <v>      -0.00000000       0.16680374      -0.00000000 </v>
    <v>       0.00126027      -0.00000000       0.13138143 </v>
   </varray>
  </crystal>
  <varray name="positions" >
   <v>       0.81205951       0.34029828       0.00699309 </v>
   <v>       0.18794049       0.84029828      -0.00699309 </v>
   <v>       0.65702553       0.85645502       0.25141752 </v>
   <v>       0.34297447       0.35645502       0.74858248 </v>
   <v>       0.81144768       0.34059259       0.49430566 </v>
   <v>       0.18855232       0.84059259       0.50569434 </v>
   <v>       0.31794886       0.34152119       0.24907157 </v>
   <v>       0.68205114       0.84152119       0.75092843 </v>
   <v>       0.30947013       0.00176491       0.24971327 </v>
   <v>       0.16821180       0.45212622       0.02837043 </v>
   <v>       0.62091440       0.45685824       0.25021602 </v>
   <v>       0.16756975       0.45302419       0.46825157 </v>
   <v>       0.69052987       0.50176491       0.75028673 </v>
   <v>       0.83178820       0.95212622       0.97162957 </v>
   <v>       0.37908560       0.95685824       0.74978398 </v>
   <v>       0.83243025      -0.04697581       0.53174843 </v>
  </varray>
 </structure>
</modeling>
