unknown system                          
           1
     6.106539    0.000000   -0.077591
     0.000000    5.929062    0.000000
     0.000000    0.000000    7.806749
   Li   P    S 
   6   2   8
Direct configuration=     1
   0.78432728  0.35848886  0.98841593
   0.21567272  0.85848886  0.01158407
   0.51349660  0.78926674  0.23274861
   0.48650340  0.28926674  0.76725139
   0.83413635  0.34785905  0.43018052
   0.16586365  0.84785905  0.56981948
   0.27217711  0.34073283  0.25971856
   0.72782289  0.84073283  0.74028144
   0.17674149  0.02788142  0.33422294
   0.11379863  0.42619023  0.03852561
   0.60162541  0.36352420  0.22057390
   0.20249477  0.58869730  0.43164958
   0.82325851  0.52788142  0.66577706
   0.88620137  0.92619023  0.96147439
   0.39837459  0.86352420  0.77942610
   0.79750523  0.08869730  0.56835042
unknown system                          
           1
     6.240560    0.000000   -0.080058
     0.000000    6.072971    0.000000
     0.000567    0.000000    8.099604
   Li   P    S 
   6   2   8
Direct configuration=     2
   0.78359174  0.35533662  0.98285960
   0.21640826  0.85533662  0.01714040
   0.51644123  0.78908332  0.23601169
   0.48355877  0.28908332  0.76398831
   0.84140687  0.36399059  0.41889140
   0.15859313  0.86399059  0.58110860
   0.26818015  0.34652824  0.25918177
   0.73181985  0.84652824  0.74081823
   0.18529247  0.03404295  0.32024647
   0.13043390  0.42927568  0.03872184
   0.59649700  0.36690541  0.21838958
   0.20869065  0.55747781  0.42038475
   0.81470753  0.53404295  0.67975353
   0.86956610  0.92927568  0.96127816
   0.40350300  0.86690541  0.78161042
   0.79130935  0.05747781  0.57961525
unknown system                          
           1
     6.235931    0.000000   -0.079973
     0.000000    6.068001    0.000000
     0.000547    0.000000    8.089490
   Li   P    S 
   6   2   8
Direct configuration=     3
   0.78361658  0.35544291  0.98304455
   0.21638342  0.85544291  0.01695545
   0.51634174  0.78908950  0.23590306
   0.48365826  0.28908950  0.76409694
   0.84116114  0.36344670  0.41926715
   0.15883886  0.86344670  0.58073285
   0.26831522  0.34633284  0.25919965
   0.73168478  0.84633284  0.74080035
   0.18500347  0.03383521  0.32071167
   0.12987174  0.42917165  0.03871526
   0.59667029  0.36679141  0.21846230
   0.20848124  0.55853042  0.42075969
   0.81499653  0.53383521  0.67928833
   0.87012826  0.92917165  0.96128474
   0.40332971  0.86679141  0.78153770
   0.79151876  0.05853042  0.57924031
unknown system                          
           1
     6.320156    0.000000   -0.091904
     0.000000    6.178037    0.000000
    -0.010704    0.000000    8.418512
   Li   P    S 
   6   2   8
Direct configuration=     4
   0.78651942  0.35235817  0.97870680
   0.21348058  0.85235817  0.02129320
   0.52013349  0.78859739  0.23966210
   0.47986651  0.28859739  0.76033790
   0.84806947  0.37334731  0.41495769
   0.15193053  0.87334731  0.58504231
   0.27411639  0.33661353  0.24339224
   0.72588361  0.83661353  0.75660776
   0.19297262  0.03518422  0.30869835
   0.14431895  0.43233823  0.03809797
   0.59166814  0.37065242  0.21554337
   0.20602552  0.55354936  0.42936418
   0.80702738  0.53518422  0.69130165
   0.85568105  0.93233823  0.96190203
   0.40833186  0.87065242  0.78445663
   0.79397448  0.05354936  0.57063582
unknown system                          
           1
     6.296169    0.000000   -0.088506
     0.000000    6.146700    0.000000
    -0.007500    0.000000    8.324810
   Li   P    S 
   6   2   8
Direct configuration=     5
   0.78570585  0.35322102  0.97989284
   0.21429415  0.85322102  0.02010716
   0.51906619  0.78873504  0.23863201
   0.48093381  0.28873504  0.76136799
   0.84613036  0.37057794  0.41613453
   0.15386964  0.87057794  0.58386547
   0.27249401  0.33933219  0.24771607
   0.72750599  0.83933219  0.75228393
   0.19073919  0.03480688  0.31198309
   0.14025965  0.43145248  0.03826167
   0.59307515  0.36957243  0.21634399
   0.20671136  0.55494265  0.42701033
   0.80926081  0.53480688  0.68801691
   0.85974035  0.93145248  0.96173833
   0.40692485  0.86957243  0.78365601
   0.79328864  0.05494265  0.57298967
unknown system                          
           1
     6.311521    0.000000   -0.055792
     0.000000    6.081341    0.000000
     0.036496    0.000000    8.378753
   Li   P    S 
   6   2   8
Direct configuration=     6
   0.78986631  0.35107976  0.97790226
   0.21013369  0.85107976  0.02209774
   0.52193234  0.78810000  0.24242471
   0.47806766  0.28810000  0.75757529
   0.85072748  0.37585101  0.41655128
   0.14927252  0.87585101  0.58344872
   0.27644517  0.34151791  0.24480255
   0.72355483  0.84151791  0.75519745
   0.19606122  0.03199264  0.30406811
   0.14692875  0.43458707  0.03548515
   0.59382101  0.37331253  0.21342170
   0.20524654  0.54619969  0.42848580
   0.80393878  0.53199264  0.69593189
   0.85307125  0.93458707  0.96451485
   0.40617899  0.87331253  0.78657830
   0.79475346  0.04619969  0.57151420
unknown system                          
           1
     6.347532    0.000000    0.020949
     0.000000    5.928024    0.000000
     0.139698    0.000000    8.505288
   Li   P    S 
   6   2   8
Direct configuration=     7
   0.79963455  0.34600294  0.97322490
   0.20036545  0.84600294  0.02677510
   0.52857770  0.78659436  0.25123736
   0.47142230  0.28659436  0.74876264
   0.86147835  0.38835324  0.41748025
   0.13852165  0.88835324  0.58251975
   0.28573864  0.34670015  0.23797614
   0.71426136  0.84670015  0.76202386
   0.20864396  0.02532021  0.28557306
   0.16258019  0.44201905  0.02895305
   0.59561391  0.38218015  0.20660434
   0.20179473  0.52547053  0.43193791
   0.79135604  0.52532021  0.71442694
   0.83741981  0.94201905  0.97104695
   0.40438609  0.88218015  0.79339566
   0.79820527  0.02547053  0.56806209
unknown system                          
           1
     6.397367    0.000000    0.027909
     0.000000    5.884330    0.000000
     0.150616    0.000000    8.355454
   Li   P    S 
   6   2   8
Direct configuration=     8
   0.80620117  0.34419810  0.97143117
   0.19379883  0.84419810  0.02856883
   0.53244461  0.78743207  0.25561524
   0.46755539  0.28743207  0.74438476
   0.86252694  0.39313271  0.41990770
   0.13747306  0.89313271  0.58009230
   0.28589914  0.35086742  0.23326427
   0.71410086  0.85086742  0.76673573
   0.21345714  0.01508696  0.27867059
   0.16859544  0.44575926  0.02739749
   0.60826203  0.39006568  0.20472296
   0.20067983  0.51609843  0.43382237
   0.78654286  0.51508696  0.72132941
   0.83140456  0.94575926  0.97260251
   0.39173797  0.89006568  0.79527704
   0.79932017  0.01609843  0.56617763
unknown system                          
           1
     6.394517    0.000000    0.027511
     0.000000    5.886829    0.000000
     0.149992    0.000000    8.364023
   Li   P    S 
   6   2   8
Direct configuration=     9
   0.80582832  0.34430209  0.97153590
   0.19417168  0.84430209  0.02846410
   0.53222571  0.78738380  0.25536055
   0.46777429  0.28738380  0.74463945
   0.86246773  0.39285734  0.41976643
   0.13753227  0.89285734  0.58023357
   0.28588946  0.35062732  0.23353859
   0.71411054  0.85062732  0.76646141
   0.21318317  0.01567655  0.27907265
   0.16825391  0.44554377  0.02748833
   0.60754406  0.38961135  0.20483307
   0.20074332  0.51663841  0.43371261
   0.78681683  0.51567655  0.72092735
   0.83174609  0.94554377  0.97251167
   0.39245594  0.88961135  0.79516693
   0.79925668  0.01663841  0.56628739
unknown system                          
           1
     6.358949    0.000000    0.036891
     0.000000    5.866548    0.000000
     0.162070    0.000000    8.214287
   Li   P    S 
   6   2   8
Direct configuration=    10
   0.81162827  0.34380518  0.97127419
   0.18837173  0.84380518  0.02872581
   0.53572929  0.78973124  0.25840905
   0.46427071  0.28973124  0.74159095
   0.85901495  0.39479916  0.42343975
   0.14098505  0.89479916  0.57656025
   0.29349552  0.34595988  0.23242834
   0.70650448  0.84595988  0.76757166
   0.21714166  0.00999223  0.27654025
   0.16825406  0.44913725  0.02324317
   0.61439378  0.39678455  0.20611584
   0.20087640  0.51243113  0.43685007
   0.78285834  0.50999223  0.72345975
   0.83174594  0.94913725  0.97675683
   0.38560622  0.89678455  0.79388416
   0.79912360  0.01243113  0.56314993
unknown system                          
           1
     6.306842    0.000000    0.050632
     0.000000    5.836836    0.000000
     0.179765   -0.000000    7.994920
   Li   P    S 
   6   2   8
Direct configuration=    11
   0.82017400  0.34307467  0.97087386
   0.17982600  0.84307467  0.02912614
   0.54088041  0.79318217  0.26295064
   0.45911959  0.29318217  0.73704936
   0.85391538  0.39765382  0.42892529
   0.14608462  0.89765382  0.57107471
   0.30470506  0.33909835  0.23075913
   0.69529494  0.83909835  0.76924087
   0.22298233  0.00163578  0.27275580
   0.16826897  0.45441998  0.01691048
   0.62448074  0.40732979  0.20801769
   0.20106159  0.50624607  0.44153013
   0.77701767  0.50163578  0.72724420
   0.83173103  0.95441998  0.98308952
   0.37551926  0.90732979  0.79198231
   0.79893841  0.00624607  0.55846987
unknown system                          
           1
     6.227805    0.000000    0.026857
     0.000000    5.871109    0.000000
     0.148859    0.000000    7.809806
   Li   P    S 
   6   2   8
Direct configuration=    12
   0.82810354  0.34105809  0.97393320
   0.17189646  0.84105809  0.02606680
   0.54825529  0.79881557  0.26671551
   0.45174471  0.29881557  0.73328449
   0.84757914  0.39860550  0.43684319
   0.15242086  0.89860550  0.56315681
   0.31025814  0.33678725  0.22859813
   0.68974186  0.83678725  0.77140187
   0.23091259  0.00179968  0.27480903
   0.17366293  0.45177226  0.01554075
   0.62823279  0.41506283  0.21032114
   0.20417939  0.49873945  0.44594157
   0.76908741  0.50179968  0.72519097
   0.82633707  0.95177226  0.98445925
   0.37176721  0.91506283  0.78967886
   0.79582061 -0.00126055  0.55405843
unknown system                          
           1
     6.183783    0.000000    0.013614
     0.000000    5.890198    0.000000
     0.131645    0.000000    7.706702
   Li   P    S 
   6   2   8
Direct configuration=    13
   0.83258335  0.33994146  0.97569081
   0.16741665  0.83994146  0.02430919
   0.55242399  0.80193494  0.26887446
   0.44757601  0.30193494  0.73112554
   0.84402484  0.39913247  0.44134716
   0.15597516  0.89913247  0.55865284
   0.31338483  0.33550753  0.22737526
   0.68661517  0.83550753  0.77262474
   0.23539035  0.00189043  0.27599298
   0.17670180  0.45030614  0.01476878
   0.63035461  0.41934484  0.21164077
   0.20594866  0.49458282  0.44846206
   0.76460965  0.50189043  0.72400702
   0.82329820  0.95030614  0.98523122
   0.36964539  0.91934484  0.78835923
   0.79405134 -0.00541718  0.55153794
unknown system                          
           1
     6.186302    0.000000    0.006094
     0.000000    5.931582    0.000000
     0.122410    0.000000    7.669052
   Li   P    S 
   6   2   8
Direct configuration=    14
   0.83702354  0.33788618  0.97784873
   0.16297646  0.83788618  0.02215127
   0.55857683  0.80589686  0.27144682
   0.44142317  0.30589686  0.72855318
   0.84075245  0.39886828  0.44712211
   0.15924755  0.89886828  0.55287789
   0.31596690  0.33431466  0.22967865
   0.68403310  0.83431466  0.77032135
   0.24109097  0.00355422  0.27693996
   0.18014295  0.44841463  0.01174355
   0.63316055  0.42371701  0.21247330
   0.20809579  0.48998879  0.45172488
   0.75890903  0.50355422  0.72306004
   0.81985705  0.94841463  0.98825645
   0.36683945  0.92371701  0.78752670
   0.79190421 -0.01001121  0.54827512
unknown system                          
           1
     6.190965    0.000000   -0.007829
     0.000000    6.008210    0.000000
     0.105310    0.000000    7.599339
   Li   P    S 
   6   2   8
Direct configuration=    15
   0.84524717  0.33410712  0.98187207
   0.15475283  0.83410712  0.01812793
   0.56997139  0.81318169  0.27624444
   0.43002861  0.31318169  0.72375556
   0.83471071  0.39838251  0.45786170
   0.16528929  0.89838251  0.54213830
   0.32075184  0.33212130  0.23396929
   0.67924816  0.83212130  0.76603071
   0.25164434  0.00661344  0.27871238
   0.18650413  0.44493669  0.00612070
   0.63835603  0.43175616  0.21402750
   0.21207820  0.48154172  0.45779997
   0.74835566  0.50661344  0.72128762
   0.81349587  0.94493669  0.99387930
   0.36164397  0.93175616  0.78597250
   0.78792180 -0.01845828  0.54220003
unknown system                          
           1
     6.221491    0.000000   -0.030530
     0.000000    6.040250    0.000000
     0.077986    0.000000    7.616747
   Li   P    S 
   6   2   8
Direct configuration=    16
   0.84663221  0.33153396  0.98244496
   0.15336779  0.83153396  0.01755504
   0.57635785  0.81595652  0.27782964
   0.42364215  0.31595652  0.72217036
   0.83470978  0.39617076  0.46060340
   0.16529022  0.89617076  0.53939660
   0.32339686  0.33503465  0.23535327
   0.67660314  0.83503465  0.76464673
   0.25632141  0.00784312  0.27544054
   0.19099358  0.44250763  0.00537581
   0.63838973  0.43372140  0.21452958
   0.21214302  0.47987259  0.46075397
   0.74367859  0.50784312  0.72455946
   0.80900642  0.94250763  0.99462419
   0.36161027  0.93372140  0.78547042
   0.78785698 -0.02012741  0.53924603
unknown system                          
           1
     6.273644    0.000000   -0.069315
     0.000000    6.094989    0.000000
     0.031304    0.000000    7.646488
   Li   P    S 
   6   2   8
Direct configuration=    17
   0.84899112  0.32716113  0.98342851
   0.15100888  0.82716113  0.01657149
   0.58722690  0.82067205  0.28056407
   0.41277310  0.32067205  0.71943593
   0.83472890  0.39241212  0.46527687
   0.16527110  0.89241212  0.53472313
   0.32790390  0.33998559  0.23772575
   0.67209610  0.83998559  0.76227425
   0.26424781  0.00993283  0.26988707
   0.19862008  0.43837968  0.00412879
   0.63845081  0.43706114  0.21538558
   0.21227551  0.47703609  0.46578964
   0.73575219  0.50993283  0.73011293
   0.80137992  0.93837968  0.99587121
   0.36154919  0.93706114  0.78461442
   0.78772449 -0.02296391  0.53421036
unknown system                          
           1
     6.283980    0.000000   -0.063695
     0.000000    6.050621    0.000000
     0.037745    0.000000    7.604871
   Li   P    S 
   6   2   8
Direct configuration=    18
   0.84848527  0.32474882  0.98354671
   0.15151473  0.82474882  0.01645329
   0.59234313  0.82240386  0.28087279
   0.40765687  0.32240386  0.71912721
   0.83654940  0.38917384  0.46659228
   0.16345060  0.88917384  0.53340772
   0.32892424  0.34139511  0.23894733
   0.67107576  0.84139511  0.76105267
   0.26849257  0.01295079  0.26586052
   0.20053923  0.43733611  0.00601344
   0.63774225  0.43781516  0.21700653
   0.21154498  0.47681694  0.46464029
   0.73150743  0.51295079  0.73413948
   0.79946077  0.93733611  0.99398656
   0.36225775  0.93781516  0.78299347
   0.78845502 -0.02318306  0.53535971
unknown system                          
           1
     6.288764    0.000000   -0.061093
     0.000000    6.030085    0.000000
     0.040727    0.000000    7.585608
   Li   P    S 
   6   2   8
Direct configuration=    19
   0.84825145  0.32362406  0.98360190
   0.15174855  0.82362406  0.01639810
   0.59470721  0.82321133  0.28101468
   0.40529279  0.32321133  0.71898532
   0.83739002  0.38766396  0.46720383
   0.16260998  0.88766396  0.53279617
   0.32939515  0.34205231  0.23951549
   0.67060485  0.84205231  0.76048451
   0.27045606  0.01435794  0.26398511
   0.20142516  0.43684954  0.00688987
   0.63741402  0.43816673  0.21776116
   0.21120796  0.47671477  0.46410564
   0.72954394  0.51435794  0.73601489
   0.79857484  0.93684954  0.99311013
   0.36258598  0.93816673  0.78223884
   0.78879204 -0.02328523  0.53589436
unknown system                          
           1
     6.312943    0.000000   -0.037336
     0.000000    6.026044    0.000000
     0.069488    0.000000    7.580303
   Li   P    S 
   6   2   8
Direct configuration=    20
   0.84716320  0.32156736  0.98397626
   0.15283680  0.82156736  0.01602374
   0.59934911  0.82497114  0.28040606
   0.40065089  0.32497114  0.71959394
   0.83978029  0.38373152  0.46864839
   0.16021971  0.88373152  0.53135161
   0.33117303  0.34346303  0.23932598
   0.66882697  0.84346303  0.76067402
   0.27430204  0.01283023  0.26133314
   0.20003963  0.43803987  0.00786878
   0.63820628  0.43890600  0.22035156
   0.20846085  0.47913148  0.46340404
   0.72569796  0.51283023  0.73866686
   0.79996037  0.93803987  0.99213122
   0.36179372  0.93890600  0.77964844
   0.79153915 -0.02086852  0.53659596
unknown system                          
           1
     6.358067    0.000000    0.006999
     0.000000    6.018504    0.000000
     0.123162    0.000000    7.570402
   Li   P    S 
   6   2   8
Direct configuration=    21
   0.84513686  0.31772662  0.98468175
   0.15486314  0.81772662  0.01531825
   0.60798403  0.82825746  0.27924218
   0.39201597  0.32825746  0.72075782
   0.84421173  0.37638796  0.47133197
   0.15578827  0.87638796  0.52866803
   0.33447990  0.34609744  0.23896162
   0.66552010  0.84609744  0.76103838
   0.28147465  0.00997736  0.25635810
   0.19745545  0.44026275  0.00970498
   0.63965710  0.44028654  0.22518432
   0.20335969  0.48364452  0.46210999
   0.71852535  0.50997736  0.74364190
   0.80254455  0.94026275  0.99029502
   0.36034290  0.94028654  0.77481568
   0.79664031 -0.01635548  0.53789001
unknown system                          
           1
     6.341309    0.000000    0.019828
     0.000000    6.016694    0.000000
     0.138152    0.000000    7.534535
   Li   P    S 
   6   2   8
Direct configuration=    22
   0.84421357  0.31797141  0.98581898
   0.15578643  0.81797141  0.01418102
   0.61301624  0.83122401  0.27795579
   0.38698376  0.33122401  0.72204421
   0.84566554  0.37259432  0.47394153
   0.15433446  0.87259432  0.52605847
   0.33284467  0.34381925  0.23771020
   0.66715533  0.84381925  0.76228980
   0.28643376  0.00984674  0.25659075
   0.19562532  0.44139585  0.01147429
   0.64120216  0.44113991  0.22798930
   0.20039348  0.48464914  0.46092706
   0.71356624  0.50984674  0.74340925
   0.80437468  0.94139585  0.98852571
   0.35879784  0.94113991  0.77201070
   0.79960652 -0.01535086  0.53907294
unknown system                          
           1
     6.335314    0.000000    0.024417
     0.000000    6.016046    0.000000
     0.143514    0.000000    7.521705
   Li   P    S 
   6   2   8
Direct configuration=    23
   0.84388139  0.31805901  0.98622831
   0.15611861  0.81805901  0.01377169
   0.61482237  0.83228554  0.27749034
   0.38517763  0.33228554  0.72250966
   0.84618471  0.37123682  0.47487861
   0.15381529  0.87123682  0.52512139
   0.33225923  0.34300402  0.23726139
   0.66774077  0.84300402  0.76273861
   0.28821233  0.00980000  0.25667134
   0.19496731  0.44180131  0.01211137
   0.64175387  0.44144528  0.22899657
   0.19933057  0.48500864  0.46050369
   0.71178767  0.50980000  0.74332866
   0.80503269  0.94180131  0.98788863
   0.35824613  0.94144528  0.77100343
   0.80066943 -0.01499136  0.53949631
unknown system                          
           1
     6.298020    0.000000    0.027657
     0.000000    6.041003    0.000000
     0.146549    0.000000    7.513176
   Li   P    S 
   6   2   8
Direct configuration=    24
   0.84290058  0.31998068  0.98736874
   0.15709942  0.81998068  0.01263126
   0.61974380  0.83504218  0.27619944
   0.38025620  0.33504218  0.72380056
   0.84646982  0.36831361  0.47748809
   0.15353018  0.86831361  0.52251191
   0.33282148  0.34212988  0.23809320
   0.66717852  0.84212988  0.76190680
   0.29205058  0.00848141  0.25785177
   0.19260614  0.44278751  0.01193920
   0.64123387  0.44161846  0.23108412
   0.19693566  0.48428689  0.45946164
   0.70794942  0.50848141  0.74214823
   0.80739386  0.94278751  0.98806080
   0.35876613  0.94161846  0.76891588
   0.80306434 -0.01571311  0.54053836
unknown system                          
           1
     6.275871    0.000000    0.029581
     0.000000    6.055824    0.000000
     0.148351    0.000000    7.508110
   Li   P    S 
   6   2   8
Direct configuration=    25
   0.84231429  0.32111721  0.98804705
   0.15768571  0.82111721  0.01195295
   0.62268427  0.83667253  0.27543060
   0.37731573  0.33667253  0.72456940
   0.84663936  0.36658475  0.47903950
   0.15336064  0.86658475  0.52096050
   0.33315711  0.34161289  0.23858761
   0.66684289  0.84161289  0.76141239
   0.29434321  0.00770156  0.25855257
   0.19119563  0.44337078  0.01183748
   0.64092259  0.44172089  0.23232543
   0.19550524  0.48386002  0.45884273
   0.70565679  0.50770156  0.74144743
   0.80880437  0.94337078  0.98816252
   0.35907741  0.94172089  0.76767457
   0.80449476 -0.01613998  0.54115727
unknown system                          
           1
     6.273615    0.000000    0.000491
     0.000000    6.069776    0.000000
     0.113477    0.000000    7.511980
   Li   P    S 
   6   2   8
Direct configuration=    26
   0.84053967  0.32387620  0.98885052
   0.15946033  0.82387620  0.01114948
   0.62843028  0.83877851  0.27397833
   0.37156972  0.33877851  0.72602167
   0.84539389  0.36380538  0.48145456
   0.15460611  0.86380538  0.51854544
   0.33260431  0.34091142  0.23895745
   0.66739569  0.84091142  0.76104255
   0.29690409  0.00762655  0.25941590
   0.18998113  0.44338832  0.01212581
   0.64129715  0.44232713  0.23379424
   0.19318894  0.48192712  0.45874435
   0.70309591  0.50762655  0.74058410
   0.81001887  0.94338832  0.98787419
   0.35870285  0.94232713  0.76620576
   0.80681106 -0.01807288  0.54125565
unknown system                          
           1
     6.268889    0.000000   -0.060443
     0.000000    6.098999    0.000000
     0.040430    0.000000    7.520084
   Li   P    S 
   6   2   8
Direct configuration=    27
   0.83683086  0.32964184  0.99051820
   0.16316914  0.82964184  0.00948180
   0.64045231  0.84317953  0.27098462
   0.35954769  0.34317953  0.72901538
   0.84281257  0.35799716  0.48650041
   0.15718743  0.85799716  0.51349959
   0.33145039  0.33944551  0.23972722
   0.66854961  0.83944551  0.76027278
   0.30227969  0.00746980  0.26124406
   0.18743989  0.44342497  0.01271958
   0.64209906  0.44359402  0.23687223
   0.18833472  0.47788780  0.45851958
   0.69772031  0.50746980  0.73875594
   0.81256011  0.94342497  0.98728042
   0.35790094  0.94359402  0.76312777
   0.81166528 -0.02211220  0.54148042
unknown system                          
           1
     6.263791    0.000000   -0.087648
     0.000000    6.076685    0.000000
     0.007832    0.000000    7.527413
   Li   P    S 
   6   2   8
Direct configuration=    28
   0.83389412  0.33208355  0.99123739
   0.16610588  0.83208355  0.00876261
   0.64623366  0.84458962  0.26926263
   0.35376634  0.34458962  0.73073737
   0.84052031  0.35492200  0.48877794
   0.15947969  0.85492200  0.51122206
   0.33197880  0.34017614  0.24135636
   0.66802120  0.84017614  0.75864364
   0.30456404  0.00813578  0.26137756
   0.18643164  0.44381106  0.01306999
   0.64047739  0.44409784  0.23828730
   0.18707170  0.47482464  0.45738339
   0.69543596  0.50813578  0.73862244
   0.81356836  0.94381106  0.98693001
   0.35952261  0.94409784  0.76171270
   0.81292830 -0.02517536  0.54261661
unknown system                          
           1
     6.260439    0.000000   -0.105534
     0.000000    6.062015    0.000000
    -0.013599    0.000000    7.532231
   Li   P    S 
   6   2   8
Direct configuration=    29
   0.83196433  0.33369470  0.99170279
   0.16803567  0.83369470  0.00829721
   0.65003166  0.84552005  0.26814535
   0.34996834  0.34552005  0.73185465
   0.83901989  0.35289289  0.49026842
   0.16098011  0.85289289  0.50973158
   0.33233204  0.34065825  0.24242769
   0.66766796  0.84065825  0.75757231
   0.30606751  0.00857523  0.26147069
   0.18576944  0.44406581  0.01329775
   0.63941525  0.44443028  0.23921290
   0.18623680  0.47280343  0.45663411
   0.69393249  0.50857523  0.73852931
   0.81423056  0.94406581  0.98670225
   0.36058475  0.94443028  0.76078710
   0.81376320 -0.02719657  0.54336589
unknown system                          
           1
     6.278330    0.000000   -0.121694
     0.000000    6.046904    0.000000
    -0.032612    0.000000    7.560013
   Li   P    S 
   6   2   8
Direct configuration=    30
   0.82904256  0.33484567  0.99230877
   0.17095744  0.83484567  0.00769123
   0.65304411  0.84586298  0.26658281
   0.34695589  0.34586298  0.73341719
   0.83660908  0.35086687  0.49149838
   0.16339092  0.85086687  0.50850162
   0.33200367  0.34202740  0.24216238
   0.66799633  0.84202740  0.75783762
   0.30760098  0.00742091  0.26098153
   0.18508207  0.44488767  0.01414939
   0.63890145  0.44558893  0.24035124
   0.18519165  0.47114020  0.45650054
   0.69239902  0.50742091  0.73901847
   0.81491793  0.94488767  0.98585061
   0.36109855  0.94558893  0.75964876
   0.81480835 -0.02885980  0.54349946
unknown system                          
           1
     6.297930    0.000000   -0.139399
     0.000000    6.030350    0.000000
    -0.053443    0.000000    7.590450
   Li   P    S 
   6   2   8
Direct configuration=    31
   0.82585262  0.33610979  0.99296357
   0.17414738  0.83610979  0.00703643
   0.65632995  0.84623962  0.26488404
   0.34367005  0.34623962  0.73511596
   0.83397940  0.34864166  0.49283548
   0.16602060  0.84864166  0.50716452
   0.33164407  0.34353117  0.24187201
   0.66835593  0.84353117  0.75812799
   0.30927463  0.00615310  0.26045107
   0.18433395  0.44579033  0.01507747
   0.63834389  0.44686151  0.24159267
   0.18404941  0.46931345  0.45635234
   0.69072537  0.50615310  0.73954893
   0.81566605  0.94579033  0.98492253
   0.36165611  0.94686151  0.75840733
   0.81595059 -0.03068655  0.54364766
unknown system                          
           1
     6.297794    0.000000   -0.134765
     0.000000    6.002414    0.000000
    -0.047085   -0.000000    7.625327
   Li   P    S 
   6   2   8
Direct configuration=    32
   0.82227096  0.33741745  0.99415098
   0.17772904  0.83741745  0.00584902
   0.65818401  0.84654546  0.26292747
   0.34181599  0.34654546  0.73707253
   0.83096882  0.34726599  0.49389068
   0.16903118  0.84726599  0.50610932
   0.33092728  0.34305073  0.24228784
   0.66907272  0.84305073  0.75771216
   0.31145833  0.00537323  0.25924516
   0.18241240  0.44731701  0.01602231
   0.63741144  0.44847767  0.24290244
   0.18288344  0.46719310  0.45573896
   0.68854167  0.50537323  0.74075484
   0.81758760  0.94731701  0.98397769
   0.36258856  0.94847767  0.75709756
   0.81711656 -0.03280690  0.54426104
unknown system                          
           1
     6.297719    0.000000   -0.132216
     0.000000    5.987047    0.000000
    -0.043588   -0.000000    7.644511
   Li   P    S 
   6   2   8
Direct configuration=    33
   0.82030009  0.33814009  0.99480233
   0.17969991  0.83814009  0.00519767
   0.65920500  0.84671447  0.26185555
   0.34079500  0.34671447  0.73814445
   0.82931217  0.34650576  0.49446944
   0.17068783  0.84650576  0.50553056
   0.33053275  0.34278522  0.24251576
   0.66946725  0.84278522  0.75748424
   0.31266022  0.00494225  0.25858414
   0.18135486  0.44816069  0.01654029
   0.63689777  0.44937081  0.24361990
   0.18224242  0.46602134  0.45540349
   0.68733978  0.50494225  0.74141586
   0.81864514  0.94816069  0.98345971
   0.36310223  0.94937081  0.75638010
   0.81775758 -0.03397866  0.54459651
unknown system                          
           1
     6.274769    0.000000   -0.123768
     0.000000    5.984121    0.000000
    -0.032890   -0.000000    7.658056
   Li   P    S 
   6   2   8
Direct configuration=    34
   0.81705987  0.33977821  0.99640850
   0.18294013  0.83977821  0.00359150
   0.66015340  0.84744330  0.26000724
   0.33984660  0.34744330  0.73999276
   0.82635380  0.34630422  0.49514835
   0.17364620  0.84630422  0.50485165
   0.32930096  0.34279367  0.24192352
   0.67069904  0.84279367  0.75807648
   0.31465951  0.00290292  0.25703796
   0.17951218  0.44895609  0.01871046
   0.63564917  0.45059650  0.24477596
   0.18058298  0.46386571  0.45523163
   0.68534049  0.50290292  0.74296204
   0.82048782  0.94895609  0.98128954
   0.36435083  0.95059650  0.75522404
   0.81941702 -0.03613429  0.54476837
unknown system                          
           1
     6.262571    0.000000   -0.119279
     0.000000    5.982566    0.000000
    -0.027205   -0.000000    7.665255
   Li   P    S 
   6   2   8
Direct configuration=    35
   0.81532995  0.34064929  0.99726243
   0.18467005  0.84064929  0.00273757
   0.66066099  0.84783086  0.25902611
   0.33933901  0.34783086  0.74097389
   0.82477508  0.34619705  0.49551017
   0.17522492  0.84619705  0.50448983
   0.32864442  0.34279817  0.24161000
   0.67135558  0.84279817  0.75839000
   0.31572741  0.00181849  0.25621654
   0.17852726  0.44937905  0.01986285
   0.63498207  0.45124827  0.24538998
   0.17969793  0.46271945  0.45514137
   0.68427259  0.50181849  0.74378346
   0.82147274  0.94937905  0.98013715
   0.36501793  0.95124827  0.75461002
   0.82030207 -0.03728055  0.54485863
unknown system                          
           1
     6.256325    0.000000   -0.108955
     0.000000    5.986513    0.000000
    -0.014233    0.000000    7.681410
   Li   P    S 
   6   2   8
Direct configuration=    36
   0.81329419  0.34192125  0.99884816
   0.18670581  0.84192125  0.00115184
   0.66126302  0.84883802  0.25786664
   0.33873698  0.34883802  0.74213336
   0.82248427  0.34668837  0.49582947
   0.17751573  0.84668837  0.50417053
   0.32728519  0.34098687  0.24203944
   0.67271481  0.84098687  0.75796056
   0.31648830  0.00126172  0.25455006
   0.17633208  0.44976693  0.02108215
   0.63480358  0.45198882  0.24601551
   0.17762483  0.46118865  0.45596685
   0.68351170  0.50126172  0.74544994
   0.82366792  0.94976693  0.97891785
   0.36519642  0.95198882  0.75398449
   0.82237517 -0.03881135  0.54403315