  16  16   0   0
  0.1797383E+02  0.5818609E-09  0.5974751E-09  0.9962395E-09  0.5000000E-15
   1.0000000000000000E-004
  CAR 
 unknown system                          
     10.75202454    -44.07076871  301      2.61997688      1.00000000
    -44.071  0.0000E+00  0.0000E+00
    -43.888  0.0000E+00  0.0000E+00
    -43.705  0.0000E+00  0.0000E+00
    -43.523  0.0000E+00  0.0000E+00
    -43.340  0.0000E+00  0.0000E+00
    -43.157  0.0000E+00  0.0000E+00
    -42.974  0.0000E+00  0.0000E+00
    -42.792  0.0000E+00  0.0000E+00
    -42.609  0.0000E+00  0.0000E+00
    -42.426  0.0000E+00  0.0000E+00
    -42.243  0.0000E+00  0.0000E+00
    -42.061  0.0000E+00  0.0000E+00
    -41.878  0.0000E+00  0.0000E+00
    -41.695  0.0000E+00  0.0000E+00
    -41.512  0.0000E+00  0.1333E-01
    -41.330  0.0000E+00  0.1333E-01
    -41.147  0.0000E+00  0.3333E-01
    -40.964  0.0000E+00  0.4000E-01
    -40.781  0.0000E+00  0.4000E-01
    -40.599  0.0000E+00  0.4000E-01
    -40.416  0.0000E+00  0.4000E-01
    -40.233  0.0000E+00  0.4000E-01
    -40.050  0.0000E+00  0.4000E-01
    -39.868  0.0000E+00  0.4000E-01
    -39.685  0.0000E+00  0.4000E-01
    -39.502  0.0000E+00  0.4000E-01
    -39.319  0.0000E+00  0.4000E-01
    -39.137  0.0000E+00  0.4000E-01
    -38.954  0.0000E+00  0.4000E-01
    -38.771  0.0000E+00  0.4000E-01
    -38.588  0.0000E+00  0.4000E-01
    -38.406  0.0000E+00  0.4000E-01
    -38.223  0.0000E+00  0.4000E-01
    -38.040  0.0000E+00  0.4000E-01
    -37.858  0.0000E+00  0.4000E-01
    -37.675  0.0000E+00  0.4000E-01
    -37.492  0.0000E+00  0.4000E-01
    -37.309  0.0000E+00  0.4000E-01
    -37.127  0.0000E+00  0.4000E-01
    -36.944  0.0000E+00  0.4000E-01
    -36.761  0.0000E+00  0.4000E-01
    -36.578  0.0000E+00  0.4000E-01
    -36.396  0.0000E+00  0.4000E-01
    -36.213  0.0000E+00  0.4000E-01
    -36.030  0.0000E+00  0.4000E-01
    -35.847  0.0000E+00  0.4000E-01
    -35.665  0.0000E+00  0.4000E-01
    -35.482  0.0000E+00  0.4000E-01
    -35.299  0.0000E+00  0.4000E-01
    -35.116  0.0000E+00  0.4000E-01
    -34.934  0.0000E+00  0.4000E-01
    -34.751  0.0000E+00  0.4000E-01
    -34.568  0.0000E+00  0.4000E-01
    -34.385  0.0000E+00  0.4000E-01
    -34.203  0.0000E+00  0.4000E-01
    -34.020  0.0000E+00  0.4000E-01
    -33.837  0.0000E+00  0.4000E-01
    -33.654  0.0000E+00  0.4000E-01
    -33.472  0.0000E+00  0.4000E-01
    -33.289  0.0000E+00  0.4000E-01
    -33.106  0.0000E+00  0.4000E-01
    -32.923  0.0000E+00  0.4000E-01
    -32.741  0.0000E+00  0.4000E-01
    -32.558  0.0000E+00  0.4000E-01
    -32.375  0.0000E+00  0.4000E-01
    -32.192  0.0000E+00  0.4000E-01
    -32.010  0.0000E+00  0.4000E-01
    -31.827  0.0000E+00  0.4000E-01
    -31.644  0.0000E+00  0.4000E-01
    -31.462  0.0000E+00  0.4000E-01
    -31.279  0.0000E+00  0.4000E-01
    -31.096  0.0000E+00  0.4000E-01
    -30.913  0.0000E+00  0.4000E-01
    -30.731  0.0000E+00  0.4000E-01
    -30.548  0.0000E+00  0.4000E-01
    -30.365  0.0000E+00  0.4000E-01
    -30.182  0.0000E+00  0.4000E-01
    -30.000  0.0000E+00  0.4000E-01
    -29.817  0.0000E+00  0.4000E-01
    -29.634  0.0000E+00  0.4000E-01
    -29.451  0.0000E+00  0.4000E-01
    -29.269  0.0000E+00  0.4000E-01
    -29.086  0.0000E+00  0.4000E-01
    -28.903  0.0000E+00  0.4000E-01
    -28.720  0.0000E+00  0.4000E-01
    -28.538  0.0000E+00  0.4000E-01
    -28.355  0.0000E+00  0.4000E-01
    -28.172  0.0000E+00  0.4000E-01
    -27.989  0.0000E+00  0.4000E-01
    -27.807  0.0000E+00  0.4000E-01
    -27.624  0.0000E+00  0.4000E-01
    -27.441  0.0000E+00  0.4000E-01
    -27.258  0.0000E+00  0.4000E-01
    -27.076  0.0000E+00  0.4000E-01
    -26.893  0.0000E+00  0.4000E-01
    -26.710  0.0000E+00  0.4000E-01
    -26.527  0.0000E+00  0.4000E-01
    -26.345  0.0000E+00  0.4000E-01
    -26.162  0.0000E+00  0.4000E-01
    -25.979  0.0000E+00  0.4000E-01
    -25.797  0.0000E+00  0.4000E-01
    -25.614  0.0000E+00  0.4000E-01
    -25.431  0.0000E+00  0.4000E-01
    -25.248  0.0000E+00  0.4000E-01
    -25.066  0.0000E+00  0.4000E-01
    -24.883  0.0000E+00  0.4000E-01
    -24.700  0.0000E+00  0.4000E-01
    -24.517  0.0000E+00  0.4000E-01
    -24.335  0.0000E+00  0.4000E-01
    -24.152  0.0000E+00  0.4000E-01
    -23.969  0.0000E+00  0.4000E-01
    -23.786  0.0000E+00  0.4000E-01
    -23.604  0.0000E+00  0.4000E-01
    -23.421  0.0000E+00  0.4000E-01
    -23.238  0.0000E+00  0.4000E-01
    -23.055  0.0000E+00  0.4000E-01
    -22.873  0.0000E+00  0.4000E-01
    -22.690  0.0000E+00  0.4000E-01
    -22.507  0.0000E+00  0.4000E-01
    -22.324  0.0000E+00  0.4000E-01
    -22.142  0.0000E+00  0.4000E-01
    -21.959  0.0000E+00  0.4000E-01
    -21.776  0.0000E+00  0.4000E-01
    -21.593  0.0000E+00  0.4000E-01
    -21.411  0.0000E+00  0.4000E-01
    -21.228  0.0000E+00  0.4000E-01
    -21.045  0.0000E+00  0.4000E-01
    -20.862  0.0000E+00  0.4000E-01
    -20.680  0.0000E+00  0.4000E-01
    -20.497  0.0000E+00  0.4000E-01
    -20.314  0.0000E+00  0.4000E-01
    -20.131  0.0000E+00  0.4000E-01
    -19.949  0.0000E+00  0.4000E-01
    -19.766  0.0000E+00  0.4000E-01
    -19.583  0.0000E+00  0.4000E-01
    -19.401  0.0000E+00  0.4000E-01
    -19.218  0.0000E+00  0.4000E-01
    -19.035  0.0000E+00  0.4000E-01
    -18.852  0.0000E+00  0.4000E-01
    -18.670  0.0000E+00  0.4000E-01
    -18.487  0.0000E+00  0.4000E-01
    -18.304  0.0000E+00  0.4000E-01
    -18.121  0.0000E+00  0.4000E-01
    -17.939  0.0000E+00  0.4000E-01
    -17.756  0.0000E+00  0.4000E-01
    -17.573  0.0000E+00  0.4000E-01
    -17.390  0.0000E+00  0.4000E-01
    -17.208  0.0000E+00  0.4000E-01
    -17.025  0.0000E+00  0.4000E-01
    -16.842  0.0000E+00  0.4000E-01
    -16.659  0.0000E+00  0.4000E-01
    -16.477  0.0000E+00  0.4000E-01
    -16.294  0.0000E+00  0.4000E-01
    -16.111  0.0000E+00  0.4000E-01
    -15.928  0.0000E+00  0.4000E-01
    -15.746  0.0000E+00  0.4000E-01
    -15.563  0.0000E+00  0.4000E-01
    -15.380  0.0000E+00  0.4000E-01
    -15.197  0.0000E+00  0.4000E-01
    -15.015  0.0000E+00  0.4000E-01
    -14.832  0.0000E+00  0.4000E-01
    -14.649  0.0000E+00  0.4000E-01
    -14.466  0.0000E+00  0.4000E-01
    -14.284  0.0000E+00  0.4000E-01
    -14.101  0.0000E+00  0.4000E-01
    -13.918  0.0000E+00  0.4000E-01
    -13.735  0.0000E+00  0.4000E-01
    -13.553  0.0000E+00  0.4000E-01
    -13.370  0.0000E+00  0.4000E-01
    -13.187  0.0000E+00  0.4000E-01
    -13.005  0.0000E+00  0.4000E-01
    -12.822  0.0000E+00  0.4000E-01
    -12.639  0.1143E+00  0.4535E-01
    -12.456  0.1050E+00  0.4913E-01
    -12.274  0.0000E+00  0.5333E-01
    -12.091  0.0000E+00  0.5333E-01
    -11.908  0.0000E+00  0.5333E-01
    -11.725  0.0000E+00  0.5333E-01
    -11.543  0.0000E+00  0.5333E-01
    -11.360  0.0000E+00  0.5333E-01
    -11.177  0.0000E+00  0.5333E-01
    -10.994  0.0000E+00  0.5333E-01
    -10.812  0.0000E+00  0.5333E-01
    -10.629  0.0000E+00  0.5333E-01
    -10.446  0.0000E+00  0.5333E-01
    -10.263  0.0000E+00  0.5333E-01
    -10.081  0.0000E+00  0.5333E-01
     -9.898  0.2393E+00  0.5379E-01
     -9.715  0.7282E-01  0.6412E-01
     -9.532  0.3310E-01  0.7323E-01
     -9.350  0.1962E-02  0.7998E-01
     -9.167  0.3945E-01  0.8821E-01
     -8.984  0.0000E+00  0.9333E-01
     -8.801  0.0000E+00  0.9333E-01
     -8.619  0.0000E+00  0.9333E-01
     -8.436  0.0000E+00  0.9333E-01
     -8.253  0.0000E+00  0.9333E-01
     -8.070  0.0000E+00  0.9333E-01
     -7.888  0.0000E+00  0.9333E-01
     -7.705  0.0000E+00  0.9333E-01
     -7.522  0.0000E+00  0.9333E-01
     -7.339  0.0000E+00  0.9333E-01
     -7.157  0.0000E+00  0.9333E-01
     -6.974  0.0000E+00  0.9333E-01
     -6.791  0.0000E+00  0.9333E-01
     -6.609  0.0000E+00  0.9333E-01
     -6.426  0.0000E+00  0.9333E-01
     -6.243  0.0000E+00  0.9333E-01
     -6.060  0.0000E+00  0.9333E-01
     -5.878  0.0000E+00  0.9333E-01
     -5.695  0.3682E-02  0.9350E-01
     -5.512  0.2826E-01  0.9573E-01
     -5.329  0.1424E-02  0.1000E+00
     -5.147  0.8058E-02  0.1007E+00
     -4.964  0.3585E-01  0.1041E+00
     -4.781  0.0000E+00  0.1067E+00
     -4.598  0.0000E+00  0.1067E+00
     -4.416  0.0000E+00  0.1067E+00
     -4.233  0.0000E+00  0.1067E+00
     -4.050  0.0000E+00  0.1067E+00
     -3.867  0.0000E+00  0.1067E+00
     -3.685  0.0000E+00  0.1067E+00
     -3.502  0.0000E+00  0.1067E+00
     -3.319  0.0000E+00  0.1067E+00
     -3.136  0.0000E+00  0.1067E+00
     -2.954  0.1593E-01  0.1073E+00
     -2.771  0.2422E-01  0.1102E+00
     -2.588  0.3443E-01  0.1161E+00
     -2.405  0.6765E-01  0.1236E+00
     -2.223  0.4742E-01  0.1312E+00
     -2.040  0.6668E-01  0.1390E+00
     -1.857  0.4376E-01  0.1422E+00
     -1.674  0.0000E+00  0.1467E+00
     -1.492  0.0000E+00  0.1467E+00
     -1.309  0.0000E+00  0.1467E+00
     -1.126  0.0000E+00  0.1467E+00
     -0.944  0.0000E+00  0.1467E+00
     -0.761  0.0000E+00  0.1467E+00
     -0.578  0.1407E-01  0.1472E+00
     -0.395  0.2502E-01  0.1514E+00
     -0.213  0.2361E-01  0.1564E+00
     -0.030  0.2883E-01  0.1619E+00
      0.153  0.6684E-01  0.1676E+00
      0.336  0.8531E-01  0.1761E+00
      0.518  0.3588E-01  0.1836E+00
      0.701  0.1329E+00  0.1901E+00
      0.884  0.8315E-01  0.1959E+00
      1.067  0.3132E-01  0.2013E+00
      1.249  0.5223E-01  0.2088E+00
      1.432  0.4192E-01  0.2162E+00
      1.615  0.4143E-01  0.2238E+00
      1.798  0.5983E-01  0.2301E+00
      1.980  0.5402E-01  0.2348E+00
      2.163  0.8577E-02  0.2400E+00
      2.346  0.2937E-01  0.2462E+00
      2.529  0.4070E-01  0.2526E+00
      2.711  0.0000E+00  0.2533E+00
      2.894  0.0000E+00  0.2533E+00
      3.077  0.0000E+00  0.2533E+00
      3.260  0.0000E+00  0.2533E+00
      3.442  0.0000E+00  0.2533E+00
      3.625  0.0000E+00  0.2533E+00
      3.808  0.0000E+00  0.2533E+00
      3.991  0.0000E+00  0.2533E+00
      4.173  0.0000E+00  0.2533E+00
      4.356  0.0000E+00  0.2533E+00
      4.539  0.0000E+00  0.2533E+00
      4.722  0.0000E+00  0.2533E+00
      4.904  0.0000E+00  0.2533E+00
      5.087  0.1418E-02  0.2533E+00
      5.270  0.1435E-01  0.2555E+00
      5.452  0.2107E-01  0.2587E+00
      5.635  0.6522E-02  0.2602E+00
      5.818  0.2870E-01  0.2645E+00
      6.001  0.0000E+00  0.2667E+00
      6.183  0.2194E-01  0.2679E+00
      6.366  0.2541E-01  0.2732E+00
      6.549  0.5585E-02  0.2798E+00
      6.732  0.2720E-01  0.2857E+00
      6.914  0.2594E-01  0.2921E+00
      7.097  0.5289E-01  0.2971E+00
      7.280  0.2482E-01  0.3012E+00
      7.463  0.1181E-01  0.3063E+00
      7.645  0.6070E-01  0.3108E+00
      7.828  0.0000E+00  0.3133E+00
      8.011  0.1263E-01  0.3136E+00
      8.194  0.9608E-02  0.3198E+00
      8.376  0.0000E+00  0.3200E+00
      8.559  0.0000E+00  0.3200E+00
      8.742  0.0000E+00  0.3200E+00
      8.925  0.0000E+00  0.3200E+00
      9.107  0.0000E+00  0.3200E+00
      9.290  0.0000E+00  0.3200E+00
      9.473  0.0000E+00  0.3200E+00
      9.656  0.0000E+00  0.3200E+00
      9.838  0.0000E+00  0.3200E+00
     10.021  0.0000E+00  0.3200E+00
     10.204  0.0000E+00  0.3200E+00
     10.387  0.0000E+00  0.3200E+00
     10.569  0.0000E+00  0.3200E+00
     10.752  0.0000E+00  0.3200E+00
