       N       E                     dE             d eps       ncg     rms          rms(c)
DAV:   1     0.536438813792E+03    0.53644E+03   -0.28497E+04  1344   0.130E+03
DAV:   2     0.130682993881E+02   -0.52337E+03   -0.49965E+03  1584   0.310E+02
DAV:   3    -0.546241277767E+02   -0.67692E+02   -0.66651E+02  1880   0.100E+02
DAV:   4    -0.643552265915E+02   -0.97311E+01   -0.96650E+01  2480   0.352E+01
DAV:   5    -0.652586992451E+02   -0.90347E+00   -0.90299E+00  2008   0.855E+00    0.375E+01
RMM:   6    -0.613930762773E+02    0.38656E+01   -0.12507E+01  1371   0.807E+00    0.234E+01
RMM:   7    -0.609066857286E+02    0.48639E+00   -0.58073E+00  1449   0.571E+00    0.478E+00
RMM:   8    -0.607109378952E+02    0.19575E+00   -0.45525E-01  1573   0.205E+00    0.735E-01
RMM:   9    -0.607010865536E+02    0.98513E-02   -0.68000E-02  1827   0.738E-01    0.422E-01
RMM:  10    -0.607012110195E+02   -0.12447E-03   -0.15257E-02  2005   0.326E-01    0.196E-01
RMM:  11    -0.607016162302E+02   -0.40521E-03   -0.54801E-03  1925   0.193E-01    0.590E-02
RMM:  12    -0.607018710087E+02   -0.25478E-03   -0.29916E-03  1852   0.128E-01    0.224E-02
RMM:  13    -0.607020056309E+02   -0.13462E-03   -0.14847E-03  1528   0.913E-02    0.155E-02
RMM:  14    -0.607020761026E+02   -0.70472E-04   -0.78120E-04  1604   0.714E-02    0.825E-03
RMM:  15    -0.607021061869E+02   -0.30084E-04   -0.34614E-04  1235   0.544E-02    0.455E-03
RMM:  16    -0.607021216074E+02   -0.15420E-04   -0.19247E-04  1196   0.480E-02
   1 F= -.60702122E+02 E0= -.60702122E+02  d E =-.607021E+02
       N       E                     dE             d eps       ncg     rms          rms(c)
DAV:   1    -0.320713475190E+02    0.28631E+02   -0.30681E+03  1376   0.261E+02    0.179E+02
RMM:   2    -0.646416518248E+02   -0.32570E+02   -0.45107E+02  1742   0.761E+01    0.566E+01
RMM:   3    -0.588832356334E+02    0.57584E+01   -0.71418E+01  2148   0.254E+01    0.616E+01
RMM:   4    -0.597662952514E+02   -0.88306E+00   -0.41054E+01  2021   0.152E+01    0.338E+01
RMM:   5    -0.601744270941E+02   -0.40813E+00   -0.12255E+01  2018   0.102E+01    0.565E+00
RMM:   6    -0.604817057807E+02   -0.30728E+00   -0.45089E+00  2195   0.630E+00    0.183E+00
RMM:   7    -0.605242666488E+02   -0.42561E-01   -0.89006E-01  2263   0.361E+00    0.120E+00
RMM:   8    -0.605378140560E+02   -0.13547E-01   -0.40047E-01  2267   0.242E+00    0.547E-01
RMM:   9    -0.605505402078E+02   -0.12726E-01   -0.16885E-01  2268   0.158E+00    0.343E-01
RMM:  10    -0.605584845616E+02   -0.79444E-02   -0.92283E-02  2264   0.114E+00    0.984E-02
RMM:  11    -0.605631813437E+02   -0.46968E-02   -0.51043E-02  2223   0.851E-01    0.517E-02
RMM:  12    -0.605665395915E+02   -0.33582E-02   -0.34969E-02  2203   0.654E-01    0.335E-02
RMM:  13    -0.605682110539E+02   -0.16715E-02   -0.17097E-02  2153   0.485E-01    0.329E-02
RMM:  14    -0.605693855046E+02   -0.11745E-02   -0.12119E-02  2143   0.378E-01    0.543E-02
RMM:  15    -0.605700238348E+02   -0.63833E-03   -0.66479E-03  2093   0.290E-01    0.606E-02
RMM:  16    -0.605704243850E+02   -0.40055E-03   -0.43182E-03  2016   0.225E-01    0.560E-02
RMM:  17    -0.605706599124E+02   -0.23553E-03   -0.25118E-03  1851   0.176E-01    0.574E-02
RMM:  18    -0.605708088336E+02   -0.14892E-03   -0.16376E-03  1773   0.141E-01    0.576E-02
RMM:  19    -0.605708999783E+02   -0.91145E-04   -0.98083E-04  1602   0.115E-01    0.642E-02
RMM:  20    -0.605709449907E+02   -0.45012E-04   -0.64493E-04  1684   0.981E-02    0.480E-02
RMM:  21    -0.605709790513E+02   -0.34061E-04   -0.45499E-04  1620   0.840E-02    0.400E-02
RMM:  22    -0.605709968568E+02   -0.17805E-04   -0.22238E-04  1297   0.714E-02    0.395E-02
RMM:  23    -0.605710058418E+02   -0.89850E-05   -0.13212E-04  1189   0.657E-02
   2 F= -.60571006E+02 E0= -.60571006E+02  d E =0.131116E+00
       N       E                     dE             d eps       ncg     rms          rms(c)
DAV:   1    -0.687322115483E+02   -0.81612E+01   -0.13344E+03  1344   0.163E+02    0.125E+02
RMM:   2    -0.708724634825E+02   -0.21403E+01   -0.13196E+02  1628   0.395E+01    0.377E+01
RMM:   3    -0.696525169854E+02    0.12199E+01   -0.25504E+01  2000   0.133E+01    0.374E+01
RMM:   4    -0.701526413741E+02   -0.50012E+00   -0.11659E+01  1980   0.790E+00    0.156E+01
RMM:   5    -0.702431134680E+02   -0.90472E-01   -0.16599E+00  2226   0.365E+00    0.615E+00
RMM:   6    -0.702532235249E+02   -0.10110E-01   -0.40996E-01  2157   0.213E+00    0.980E-01
RMM:   7    -0.702588344918E+02   -0.56110E-02   -0.13786E-01  2237   0.129E+00    0.330E-01
RMM:   8    -0.702627851524E+02   -0.39507E-02   -0.51422E-02  2277   0.835E-01    0.160E-01
RMM:   9    -0.702651079530E+02   -0.23228E-02   -0.24910E-02  2242   0.570E-01    0.632E-02
RMM:  10    -0.702663206366E+02   -0.12127E-02   -0.12786E-02  2220   0.405E-01    0.467E-02
RMM:  11    -0.702669295389E+02   -0.60890E-03   -0.65403E-03  2170   0.295E-01    0.274E-02
RMM:  12    -0.702673016413E+02   -0.37210E-03   -0.38302E-03  2155   0.222E-01    0.208E-02
RMM:  13    -0.702675137145E+02   -0.21207E-03   -0.22627E-03  2139   0.170E-01    0.120E-02
RMM:  14    -0.702676397520E+02   -0.12604E-03   -0.13170E-03  1998   0.129E-01    0.686E-03
RMM:  15    -0.702677066994E+02   -0.66947E-04   -0.69461E-04  1811   0.990E-02    0.103E-02
RMM:  16    -0.702677398401E+02   -0.33141E-04   -0.36912E-04  1593   0.805E-02    0.347E-03
RMM:  17    -0.702677559941E+02   -0.16154E-04   -0.19168E-04  1413   0.695E-02
   3 F= -.70267756E+02 E0= -.70267756E+02  d E =-.956563E+01
       N       E                     dE             d eps       ncg     rms          rms(c)
DAV:   1    -0.703045904681E+02   -0.36851E-01   -0.16878E+00  1568   0.591E+00    0.953E-01
RMM:   2    -0.703042019838E+02    0.38848E-03   -0.79310E-02  1760   0.118E+00    0.299E-01
RMM:   3    -0.703028330430E+02    0.13689E-02   -0.13299E-02  2026   0.422E-01    0.205E-01
RMM:   4    -0.703028594508E+02   -0.26408E-04   -0.32789E-03  2177   0.196E-01    0.137E-01
RMM:   5    -0.703029161286E+02   -0.56678E-04   -0.13220E-03  2058   0.131E-01    0.336E-02
RMM:   6    -0.703029734958E+02   -0.57367E-04   -0.72496E-04  2002   0.946E-02    0.103E-02
RMM:   7    -0.703030085743E+02   -0.35079E-04   -0.37226E-04  1608   0.719E-02    0.621E-03
RMM:   8    -0.703030162925E+02   -0.77181E-05   -0.97360E-05  1294   0.586E-02
   4 F= -.70303016E+02 E0= -.70303016E+02  d E =-.960089E+01
       N       E                     dE             d eps       ncg     rms          rms(c)
DAV:   1    -0.686897098239E+02    0.16133E+01   -0.53865E+02  1400   0.106E+02    0.384E+01
RMM:   2    -0.724779919604E+02   -0.37883E+01   -0.68272E+01  1775   0.283E+01    0.181E+01
RMM:   3    -0.714845877169E+02    0.99340E+00   -0.89289E+00  2121   0.976E+00    0.181E+01
RMM:   4    -0.710494043254E+02    0.43518E+00   -0.18881E+00  1746   0.480E+00    0.678E+00
RMM:   5    -0.710526437894E+02   -0.32395E-02   -0.10333E+00  1941   0.323E+00    0.150E+00
RMM:   6    -0.710438168438E+02    0.88269E-02   -0.23267E-01  2125   0.175E+00    0.616E-01
RMM:   7    -0.710514202981E+02   -0.76035E-02   -0.10163E-01  2228   0.116E+00    0.238E-01
RMM:   8    -0.710562111366E+02   -0.47908E-02   -0.51405E-02  2202   0.814E-01    0.122E-01
RMM:   9    -0.710587381125E+02   -0.25270E-02   -0.25570E-02  2191   0.597E-01    0.429E-02
RMM:  10    -0.710604458088E+02   -0.17077E-02   -0.17613E-02  2145   0.467E-01    0.248E-02
RMM:  11    -0.710613759865E+02   -0.93018E-03   -0.94989E-03  2084   0.363E-01    0.145E-02
RMM:  12    -0.710620385510E+02   -0.66256E-03   -0.68641E-03  2083   0.292E-01    0.119E-02
RMM:  13    -0.710624101478E+02   -0.37160E-03   -0.37909E-03  2057   0.230E-01    0.632E-03
RMM:  14    -0.710626673548E+02   -0.25721E-03   -0.26619E-03  2037   0.186E-01    0.516E-03
RMM:  15    -0.710628207987E+02   -0.15344E-03   -0.15882E-03  1990   0.150E-01    0.569E-03
RMM:  16    -0.710629246340E+02   -0.10384E-03   -0.10839E-03  1812   0.123E-01    0.802E-03
RMM:  17    -0.710629871935E+02   -0.62560E-04   -0.65954E-04  1708   0.103E-01    0.125E-02
RMM:  18    -0.710630290850E+02   -0.41892E-04   -0.45059E-04  1609   0.891E-02    0.160E-02
RMM:  19    -0.710630538824E+02   -0.24797E-04   -0.27861E-04  1485   0.791E-02    0.183E-02
RMM:  20    -0.710630673573E+02   -0.13475E-04   -0.17021E-04  1339   0.723E-02
   5 F= -.71063067E+02 E0= -.71063067E+02  d E =-.760051E+00
       N       E                     dE             d eps       ncg     rms          rms(c)
DAV:   1    -0.722220495893E+02   -0.11590E+01   -0.17109E+02  1344   0.573E+01    0.205E+01
RMM:   2    -0.721186903993E+02    0.10336E+00   -0.10892E+01  1720   0.131E+01    0.343E+00
RMM:   3    -0.719232119000E+02    0.19548E+00   -0.14941E+00  2054   0.423E+00    0.364E+00
RMM:   4    -0.718842986217E+02    0.38913E-01   -0.37766E-01  2131   0.204E+00    0.200E+00
RMM:   5    -0.718811742702E+02    0.31244E-02   -0.13457E-01  2141   0.127E+00    0.558E-01
RMM:   6    -0.718851490568E+02   -0.39748E-02   -0.63260E-02  2231   0.880E-01    0.148E-01
RMM:   7    -0.718883333757E+02   -0.31843E-02   -0.33884E-02  2238   0.629E-01    0.725E-02
RMM:   8    -0.718899489284E+02   -0.16156E-02   -0.16349E-02  2234   0.457E-01    0.382E-02
RMM:   9    -0.718909171439E+02   -0.96822E-03   -0.99802E-03  2161   0.349E-01    0.259E-02
RMM:  10    -0.718914775885E+02   -0.56044E-03   -0.57520E-03  2147   0.268E-01    0.197E-02
RMM:  11    -0.718918037359E+02   -0.32615E-03   -0.33767E-03  2129   0.208E-01    0.662E-03
RMM:  12    -0.718920044226E+02   -0.20069E-03   -0.20647E-03  2085   0.163E-01    0.732E-03
RMM:  13    -0.718921225339E+02   -0.11811E-03   -0.12258E-03  2021   0.129E-01    0.399E-03
RMM:  14    -0.718921961761E+02   -0.73642E-04   -0.76449E-04  1882   0.104E-01    0.397E-03
RMM:  15    -0.718922343213E+02   -0.38145E-04   -0.40594E-04  1681   0.843E-02    0.330E-03
RMM:  16    -0.718922540990E+02   -0.19778E-04   -0.22764E-04  1493   0.730E-02    0.166E-03
RMM:  17    -0.718922639456E+02   -0.98467E-05   -0.13135E-04  1406   0.662E-02
   6 F= -.71892264E+02 E0= -.71892264E+02  d E =-.158925E+01
       N       E                     dE             d eps       ncg     rms          rms(c)
DAV:   1    -0.724121951106E+02   -0.51994E+00   -0.70819E+01  1344   0.392E+01    0.635E+00
RMM:   2    -0.726441083235E+02   -0.23191E+00   -0.37504E+00  1698   0.825E+00    0.171E+00
RMM:   3    -0.726016040405E+02    0.42504E-01   -0.50824E-01  2133   0.270E+00    0.133E+00
RMM:   4    -0.725888353154E+02    0.12769E-01   -0.15491E-01  1982   0.135E+00    0.439E-01
RMM:   5    -0.725913645557E+02   -0.25292E-02   -0.48044E-02  2202   0.787E-01    0.175E-01
RMM:   6    -0.725930917205E+02   -0.17272E-02   -0.24094E-02  2213   0.531E-01    0.576E-02
RMM:   7    -0.725941610026E+02   -0.10693E-02   -0.12221E-02  2166   0.381E-01    0.367E-02
RMM:   8    -0.725948555731E+02   -0.69457E-03   -0.73012E-03  2105   0.287E-01    0.166E-02
RMM:   9    -0.725952597188E+02   -0.40415E-03   -0.42333E-03  2056   0.217E-01    0.938E-03
RMM:  10    -0.725955187595E+02   -0.25904E-03   -0.26552E-03  2018   0.166E-01    0.610E-03
RMM:  11    -0.725956493919E+02   -0.13063E-03   -0.13105E-03  1942   0.124E-01    0.367E-03
RMM:  12    -0.725957224270E+02   -0.73035E-04   -0.75632E-04  1828   0.972E-02    0.209E-03
RMM:  13    -0.725957619476E+02   -0.39521E-04   -0.41940E-04  1662   0.787E-02    0.115E-03
RMM:  14    -0.725957785788E+02   -0.16631E-04   -0.19146E-04  1400   0.662E-02
   7 F= -.72595779E+02 E0= -.72595779E+02  d E =-.703515E+00
       N       E                     dE             d eps       ncg     rms          rms(c)
DAV:   1    -0.726637900966E+02   -0.68028E-01   -0.56920E+01  1344   0.350E+01    0.589E+00
RMM:   2    -0.728385581961E+02   -0.17477E+00   -0.29071E+00  1704   0.739E+00    0.149E+00
RMM:   3    -0.728082809592E+02    0.30277E-01   -0.38262E-01  2136   0.238E+00    0.109E+00
RMM:   4    -0.727981054233E+02    0.10176E-01   -0.13169E-01  1967   0.122E+00    0.325E-01
RMM:   5    -0.728002573316E+02   -0.21519E-02   -0.38674E-02  2230   0.701E-01    0.154E-01
RMM:   6    -0.728018006370E+02   -0.15433E-02   -0.20352E-02  2204   0.477E-01    0.535E-02
RMM:   7    -0.728026633210E+02   -0.86268E-03   -0.10039E-02  2127   0.343E-01    0.330E-02
RMM:   8    -0.728032237523E+02   -0.56043E-03   -0.60194E-03  2083   0.259E-01    0.142E-02
RMM:   9    -0.728035631912E+02   -0.33944E-03   -0.35262E-03  2015   0.195E-01    0.845E-03
RMM:  10    -0.728037679023E+02   -0.20471E-03   -0.20917E-03  1991   0.148E-01    0.496E-03
RMM:  11    -0.728038710872E+02   -0.10318E-03   -0.10336E-03  1924   0.110E-01    0.341E-03
RMM:  12    -0.728039253321E+02   -0.54245E-04   -0.56314E-04  1713   0.860E-02    0.150E-03
RMM:  13    -0.728039514669E+02   -0.26135E-04   -0.28626E-04  1496   0.709E-02    0.155E-03
RMM:  14    -0.728039623587E+02   -0.10892E-04   -0.13785E-04  1317   0.620E-02
   8 F= -.72803962E+02 E0= -.72803962E+02  d E =-.911698E+00
       N       E                     dE             d eps       ncg     rms          rms(c)
DAV:   1    -0.730266476086E+02   -0.22270E+00   -0.94273E+01  1344   0.448E+01    0.814E+00
RMM:   2    -0.733177916221E+02   -0.29114E+00   -0.49705E+00  1693   0.938E+00    0.196E+00
RMM:   3    -0.732901577096E+02    0.27634E-01   -0.70707E-01  2143   0.304E+00    0.191E+00
RMM:   4    -0.732760954242E+02    0.14062E-01   -0.16366E-01  2056   0.139E+00    0.885E-01
RMM:   5    -0.732775378275E+02   -0.14424E-02   -0.65437E-02  2145   0.871E-01    0.206E-01
RMM:   6    -0.732789728686E+02   -0.14350E-02   -0.26667E-02  2220   0.575E-01    0.572E-02
RMM:   7    -0.732803981849E+02   -0.14253E-02   -0.15456E-02  2144   0.406E-01    0.379E-02
RMM:   8    -0.732811607579E+02   -0.76257E-03   -0.77205E-03  2129   0.296E-01    0.164E-02
RMM:   9    -0.732815877683E+02   -0.42701E-03   -0.44150E-03  2085   0.221E-01    0.105E-02
RMM:  10    -0.732818530915E+02   -0.26532E-03   -0.27423E-03  2014   0.172E-01    0.632E-03
RMM:  11    -0.732820024488E+02   -0.14936E-03   -0.15322E-03  1959   0.133E-01    0.364E-03
RMM:  12    -0.732820918744E+02   -0.89426E-04   -0.92575E-04  1833   0.105E-01    0.310E-03
RMM:  13    -0.732821392263E+02   -0.47352E-04   -0.49923E-04  1616   0.846E-02    0.272E-03
RMM:  14    -0.732821629000E+02   -0.23674E-04   -0.26693E-04  1433   0.723E-02    0.305E-03
RMM:  15    -0.732821759212E+02   -0.13021E-04   -0.16378E-04  1358   0.656E-02
   9 F= -.73282176E+02 E0= -.73282176E+02  d E =-.478214E+00
       N       E                     dE             d eps       ncg     rms          rms(c)
DAV:   1    -0.732872141557E+02   -0.50513E-02   -0.68198E+00  1504   0.120E+01    0.196E+00
RMM:   2    -0.733066997728E+02   -0.19486E-01   -0.32908E-01  1697   0.248E+00    0.479E-01
RMM:   3    -0.733033728137E+02    0.33270E-02   -0.37080E-02  2113   0.778E-01    0.380E-01
RMM:   4    -0.733022229053E+02    0.11499E-02   -0.12558E-02  1988   0.371E-01    0.140E-01
RMM:   5    -0.733025270675E+02   -0.30416E-03   -0.50104E-03  2183   0.241E-01    0.604E-02
RMM:   6    -0.733027275518E+02   -0.20048E-03   -0.25667E-03  2049   0.171E-01    0.179E-02
RMM:   7    -0.733028444835E+02   -0.11693E-03   -0.13701E-03  2024   0.129E-01    0.118E-02
RMM:   8    -0.733029236430E+02   -0.79159E-04   -0.85755E-04  1832   0.101E-01    0.380E-03
RMM:   9    -0.733029696329E+02   -0.45990E-04   -0.48695E-04  1767   0.808E-02    0.324E-03
RMM:  10    -0.733029910282E+02   -0.21395E-04   -0.23514E-04  1412   0.660E-02    0.205E-03
RMM:  11    -0.733029981124E+02   -0.70843E-05   -0.10058E-04  1287   0.583E-02
  10 F= -.73302998E+02 E0= -.73302998E+02  d E =-.499036E+00
       N       E                     dE             d eps       ncg     rms          rms(c)
DAV:   1    -0.734386835019E+02   -0.13569E+00   -0.11576E+02  1344   0.485E+01    0.811E+00
RMM:   2    -0.737659793150E+02   -0.32730E+00   -0.59204E+00  1690   0.100E+01    0.219E+00
RMM:   3    -0.737691799772E+02   -0.32007E-02   -0.10120E+00  2137   0.337E+00    0.262E+00
RMM:   4    -0.737643588871E+02    0.48211E-02   -0.20944E-01  2174   0.151E+00    0.148E+00
RMM:   5    -0.737663856713E+02   -0.20268E-02   -0.85442E-02  2095   0.973E-01    0.237E-01
RMM:   6    -0.737688451478E+02   -0.24595E-02   -0.34802E-02  2218   0.642E-01    0.770E-02
RMM:   7    -0.737707879869E+02   -0.19428E-02   -0.20884E-02  2107   0.449E-01    0.565E-02
RMM:   8    -0.737716307776E+02   -0.84279E-03   -0.84511E-03  2135   0.315E-01    0.238E-02
RMM:   9    -0.737721437388E+02   -0.51296E-03   -0.53612E-03  2050   0.238E-01    0.116E-02
RMM:  10    -0.737724175169E+02   -0.27378E-03   -0.28086E-03  2001   0.181E-01    0.543E-03
RMM:  11    -0.737725895917E+02   -0.17207E-03   -0.17734E-03  1978   0.140E-01    0.356E-03
RMM:  12    -0.737726809406E+02   -0.91349E-04   -0.93876E-04  1901   0.109E-01    0.196E-03
RMM:  13    -0.737727350062E+02   -0.54066E-04   -0.56803E-04  1743   0.868E-02    0.120E-03
RMM:  14    -0.737727583188E+02   -0.23313E-04   -0.25713E-04  1437   0.720E-02    0.130E-03
RMM:  15    -0.737727701546E+02   -0.11836E-04   -0.15270E-04  1345   0.649E-02
  11 F= -.73772770E+02 E0= -.73772770E+02  d E =-.469772E+00
       N       E                     dE             d eps       ncg     rms          rms(c)
DAV:   1    -0.734155863474E+02    0.35717E+00   -0.16062E+02  1344   0.576E+01    0.104E+01
RMM:   2    -0.739086662257E+02   -0.49308E+00   -0.86213E+00  1686   0.120E+01    0.270E+00
RMM:   3    -0.739312507772E+02   -0.22585E-01   -0.15901E+00  2139   0.407E+00    0.318E+00
RMM:   4    -0.739279657088E+02    0.32851E-02   -0.34958E-01  2141   0.188E+00    0.164E+00
RMM:   5    -0.739315448639E+02   -0.35792E-02   -0.10950E-01  2176   0.113E+00    0.373E-01
RMM:   6    -0.739349151866E+02   -0.33703E-02   -0.46553E-02  2222   0.746E-01    0.817E-02
RMM:   7    -0.739374081334E+02   -0.24929E-02   -0.26315E-02  2144   0.514E-01    0.482E-02
RMM:   8    -0.739385142899E+02   -0.11062E-02   -0.10924E-02  2209   0.357E-01    0.220E-02
RMM:   9    -0.739391322454E+02   -0.61796E-03   -0.64200E-03  2141   0.265E-01    0.124E-02
RMM:  10    -0.739394781428E+02   -0.34590E-03   -0.35702E-03  2027   0.200E-01    0.677E-03
RMM:  11    -0.739396758627E+02   -0.19772E-03   -0.20505E-03  2023   0.153E-01    0.379E-03
RMM:  12    -0.739397909735E+02   -0.11511E-03   -0.11936E-03  1871   0.119E-01    0.178E-03
RMM:  13    -0.739398560938E+02   -0.65120E-04   -0.68296E-04  1839   0.940E-02    0.131E-03
RMM:  14    -0.739398891243E+02   -0.33031E-04   -0.35551E-04  1568   0.766E-02    0.124E-03
RMM:  15    -0.739399029401E+02   -0.13816E-04   -0.16858E-04  1327   0.667E-02
  12 F= -.73939903E+02 E0= -.73939903E+02  d E =-.636905E+00
       N       E                     dE             d eps       ncg     rms          rms(c)
DAV:   1    -0.743139523800E+02   -0.37406E+00   -0.16009E+02  1344   0.596E+01    0.109E+01
RMM:   2    -0.743696279272E+02   -0.55676E-01   -0.82877E+00  1693   0.117E+01    0.283E+00
RMM:   3    -0.742768899865E+02    0.92738E-01   -0.15586E+00  2051   0.417E+00    0.202E+00
RMM:   4    -0.742694003396E+02    0.74896E-02   -0.38011E-01  2135   0.201E+00    0.111E+00
RMM:   5    -0.742722933285E+02   -0.28930E-02   -0.11087E-01  2172   0.119E+00    0.400E-01
RMM:   6    -0.742768028192E+02   -0.45095E-02   -0.54855E-02  2223   0.798E-01    0.111E-01
RMM:   7    -0.742792788285E+02   -0.24760E-02   -0.25695E-02  2206   0.534E-01    0.601E-02
RMM:   8    -0.742805542535E+02   -0.12754E-02   -0.13055E-02  2243   0.381E-01    0.221E-02
RMM:   9    -0.742812265333E+02   -0.67228E-03   -0.70493E-03  2155   0.278E-01    0.121E-02
RMM:  10    -0.742816157784E+02   -0.38925E-03   -0.40762E-03  2063   0.208E-01    0.910E-03
RMM:  11    -0.742818302266E+02   -0.21445E-03   -0.22346E-03  2031   0.158E-01    0.652E-03
RMM:  12    -0.742819525772E+02   -0.12235E-03   -0.12803E-03  1945   0.121E-01    0.461E-03
RMM:  13    -0.742820207120E+02   -0.68135E-04   -0.71716E-04  1773   0.945E-02    0.336E-03
RMM:  14    -0.742820557303E+02   -0.35018E-04   -0.37951E-04  1621   0.766E-02    0.385E-03
RMM:  15    -0.742820703006E+02   -0.14570E-04   -0.17376E-04  1353   0.654E-02
  13 F= -.74282070E+02 E0= -.74282070E+02  d E =-.342167E+00
       N       E                     dE             d eps       ncg     rms          rms(c)
DAV:   1    -0.742869226360E+02   -0.48669E-02   -0.18733E+00  1784   0.646E+00    0.880E-01
RMM:   2    -0.742869594932E+02   -0.36857E-04   -0.79811E-02  1721   0.122E+00    0.332E-01
RMM:   3    -0.742854407677E+02    0.15187E-02   -0.12712E-02  2069   0.433E-01    0.191E-01
RMM:   4    -0.742852468796E+02    0.19389E-03   -0.38343E-03  2139   0.206E-01    0.861E-02
RMM:   5    -0.742853182966E+02   -0.71417E-04   -0.14682E-03  2077   0.131E-01    0.353E-02
RMM:   6    -0.742853876454E+02   -0.69349E-04   -0.76419E-04  1939   0.923E-02    0.105E-02
RMM:   7    -0.742854134765E+02   -0.25831E-04   -0.27998E-04  1582   0.684E-02    0.423E-03
RMM:   8    -0.742854232401E+02   -0.97637E-05   -0.12692E-04  1336   0.577E-02
  14 F= -.74285423E+02 E0= -.74285423E+02  d E =-.345520E+00
       N       E                     dE             d eps       ncg     rms          rms(c)
DAV:   1    -0.743868742119E+02   -0.10146E+00   -0.89128E+01  1344   0.463E+01    0.613E+00
RMM:   2    -0.746221884794E+02   -0.23531E+00   -0.40823E+00  1735   0.864E+00    0.157E+00
RMM:   3    -0.746176977748E+02    0.44907E-02   -0.74719E-01  2157   0.308E+00    0.125E+00
RMM:   4    -0.746092540216E+02    0.84438E-02   -0.20535E-01  2077   0.156E+00    0.497E-01
RMM:   5    -0.746127728649E+02   -0.35188E-02   -0.68390E-02  2202   0.932E-01    0.197E-01
RMM:   6    -0.746154168455E+02   -0.26440E-02   -0.34075E-02  2245   0.629E-01    0.555E-02
RMM:   7    -0.746169241007E+02   -0.15073E-02   -0.17017E-02  2187   0.439E-01    0.310E-02
RMM:   8    -0.746178838907E+02   -0.95979E-03   -0.10098E-02  2161   0.324E-01    0.175E-02
RMM:   9    -0.746183660773E+02   -0.48219E-03   -0.50178E-03  2092   0.235E-01    0.965E-03
RMM:  10    -0.746186525192E+02   -0.28644E-03   -0.29969E-03  2080   0.177E-01    0.534E-03
RMM:  11    -0.746188037964E+02   -0.15128E-03   -0.15633E-03  2038   0.133E-01    0.325E-03
RMM:  12    -0.746188878236E+02   -0.84027E-04   -0.87788E-04  1931   0.101E-01    0.300E-03
RMM:  13    -0.746189313123E+02   -0.43489E-04   -0.46179E-04  1658   0.790E-02    0.357E-03
RMM:  14    -0.746189479171E+02   -0.16605E-04   -0.19091E-04  1369   0.654E-02
  15 F= -.74618948E+02 E0= -.74618948E+02  d E =-.333525E+00
       N       E                     dE             d eps       ncg     rms          rms(c)
DAV:   1    -0.745454305504E+02    0.73501E-01   -0.67191E+01  1344   0.402E+01    0.505E+00
RMM:   2    -0.747109577101E+02   -0.16553E+00   -0.29494E+00  1731   0.743E+00    0.136E+00
RMM:   3    -0.747033859753E+02    0.75717E-02   -0.50777E-01  2163   0.259E+00    0.104E+00
RMM:   4    -0.746963964147E+02    0.69896E-02   -0.15012E-01  2078   0.132E+00    0.386E-01
RMM:   5    -0.746991230154E+02   -0.27266E-02   -0.50116E-02  2199   0.794E-01    0.171E-01
RMM:   6    -0.747011937369E+02   -0.20707E-02   -0.26347E-02  2240   0.550E-01    0.504E-02
RMM:   7    -0.747023492432E+02   -0.11555E-02   -0.13272E-02  2164   0.390E-01    0.271E-02
RMM:   8    -0.747031314299E+02   -0.78219E-03   -0.82642E-03  2112   0.292E-01    0.155E-02
RMM:   9    -0.747035298905E+02   -0.39846E-03   -0.41142E-03  2089   0.214E-01    0.985E-03
RMM:  10    -0.747037646758E+02   -0.23479E-03   -0.24523E-03  2052   0.162E-01    0.439E-03
RMM:  11    -0.747038920270E+02   -0.12735E-03   -0.13179E-03  2024   0.123E-01    0.328E-03
RMM:  12    -0.747039621819E+02   -0.70155E-04   -0.73645E-04  1906   0.941E-02    0.253E-03
RMM:  13    -0.747039980655E+02   -0.35884E-04   -0.38316E-04  1588   0.748E-02    0.346E-03
RMM:  14    -0.747040105426E+02   -0.12477E-04   -0.15332E-04  1327   0.634E-02
  16 F= -.74704011E+02 E0= -.74704011E+02  d E =-.418587E+00
       N       E                     dE             d eps       ncg     rms          rms(c)
DAV:   1    -0.747239044522E+02   -0.19906E-01   -0.60262E+01  1344   0.377E+01    0.347E+00
RMM:   2    -0.749187515791E+02   -0.19485E+00   -0.26791E+00  1761   0.704E+00    0.135E+00
RMM:   3    -0.749403685033E+02   -0.21617E-01   -0.52029E-01  2197   0.259E+00    0.125E+00
RMM:   4    -0.749373842908E+02    0.29842E-02   -0.13146E-01  2151   0.128E+00    0.528E-01
RMM:   5    -0.749400875911E+02   -0.27033E-02   -0.51445E-02  2186   0.797E-01    0.138E-01
RMM:   6    -0.749418952240E+02   -0.18076E-02   -0.25856E-02  2236   0.541E-01    0.536E-02
RMM:   7    -0.749432047306E+02   -0.13095E-02   -0.14213E-02  2176   0.379E-01    0.349E-02
RMM:   8    -0.749439155986E+02   -0.71087E-03   -0.73092E-03  2088   0.271E-01    0.145E-02
RMM:   9    -0.749442495312E+02   -0.33393E-03   -0.34350E-03  2079   0.192E-01    0.894E-03
RMM:  10    -0.749444559329E+02   -0.20640E-03   -0.21611E-03  2032   0.146E-01    0.659E-03
RMM:  11    -0.749445539803E+02   -0.98047E-04   -0.10138E-03  2012   0.108E-01    0.493E-03
RMM:  12    -0.749446070048E+02   -0.53025E-04   -0.57310E-04  1775   0.830E-02    0.288E-03
RMM:  13    -0.749446291343E+02   -0.22129E-04   -0.25021E-04  1425   0.672E-02    0.129E-03
RMM:  14    -0.749446358664E+02   -0.67321E-05   -0.10239E-04  1208   0.598E-02
  17 F= -.74944636E+02 E0= -.74944636E+02  d E =-.240625E+00
       N       E                     dE             d eps       ncg     rms          rms(c)
DAV:   1    -0.747530769205E+02    0.19155E+00   -0.72967E+01  1344   0.413E+01    0.389E+00
RMM:   2    -0.749959420311E+02   -0.24287E+00   -0.32980E+00  1757   0.778E+00    0.148E+00
RMM:   3    -0.750249976225E+02   -0.29056E-01   -0.65735E-01  2193   0.287E+00    0.138E+00
RMM:   4    -0.750213567155E+02    0.36409E-02   -0.15891E-01  2134   0.141E+00    0.578E-01
RMM:   5    -0.750246247596E+02   -0.32680E-02   -0.61092E-02  2187   0.869E-01    0.154E-01
RMM:   6    -0.750266939397E+02   -0.20692E-02   -0.30629E-02  2231   0.588E-01    0.582E-02
RMM:   7    -0.750282372935E+02   -0.15434E-02   -0.16792E-02  2188   0.409E-01    0.370E-02
RMM:   8    -0.750290720273E+02   -0.83473E-03   -0.85710E-03  2110   0.291E-01    0.153E-02
RMM:   9    -0.750294602083E+02   -0.38818E-03   -0.39781E-03  2093   0.205E-01    0.955E-03
RMM:  10    -0.750296995683E+02   -0.23936E-03   -0.25039E-03  2052   0.155E-01    0.666E-03
RMM:  11    -0.750298116616E+02   -0.11209E-03   -0.11570E-03  2004   0.114E-01    0.538E-03
RMM:  12    -0.750298731690E+02   -0.61507E-04   -0.66591E-04  1784   0.880E-02    0.329E-03
RMM:  13    -0.750299016937E+02   -0.28525E-04   -0.31870E-04  1521   0.709E-02    0.154E-03
RMM:  14    -0.750299125655E+02   -0.10872E-04   -0.14138E-04  1248   0.616E-02
  18 F= -.75029913E+02 E0= -.75029913E+02  d E =-.325902E+00
       N       E                     dE             d eps       ncg     rms          rms(c)
DAV:   1    -0.750490684669E+02   -0.19167E-01   -0.50548E+01  1344   0.333E+01    0.358E+00
RMM:   2    -0.752177540013E+02   -0.16869E+00   -0.21098E+00  1730   0.627E+00    0.979E-01
RMM:   3    -0.752276657193E+02   -0.99117E-02   -0.34838E-01  2181   0.217E+00    0.903E-01
RMM:   4    -0.752263668316E+02    0.12989E-02   -0.10055E-01  2093   0.106E+00    0.339E-01
RMM:   5    -0.752290333384E+02   -0.26665E-02   -0.37326E-02  2149   0.637E-01    0.123E-01
RMM:   6    -0.752304830013E+02   -0.14497E-02   -0.18509E-02  2201   0.438E-01    0.361E-02
RMM:   7    -0.752313205915E+02   -0.83759E-03   -0.90888E-03  2139   0.297E-01    0.233E-02
RMM:   8    -0.752317711796E+02   -0.45059E-03   -0.46535E-03  2021   0.209E-01    0.116E-02
RMM:   9    -0.752319811967E+02   -0.21002E-03   -0.22028E-03  2047   0.148E-01    0.669E-03
RMM:  10    -0.752320968665E+02   -0.11567E-03   -0.12177E-03  1925   0.109E-01    0.363E-03
RMM:  11    -0.752321475270E+02   -0.50660E-04   -0.52546E-04  1692   0.806E-02    0.260E-03
RMM:  12    -0.752321659421E+02   -0.18415E-04   -0.21186E-04  1385   0.644E-02    0.178E-03
RMM:  13    -0.752321702333E+02   -0.42913E-05   -0.76455E-05  1169   0.576E-02
  19 F= -.75232170E+02 E0= -.75232170E+02  d E =-.202258E+00
       N       E                     dE             d eps       ncg     rms          rms(c)
DAV:   1    -0.747674992110E+02    0.46467E+00   -0.13881E+02  1344   0.553E+01    0.728E+00
RMM:   2    -0.753000402946E+02   -0.53254E+00   -0.66546E+00  1709   0.108E+01    0.177E+00
RMM:   3    -0.753571578082E+02   -0.57118E-01   -0.13540E+00  2172   0.388E+00    0.182E+00
RMM:   4    -0.753558797992E+02    0.12780E-02   -0.30384E-01  2075   0.184E+00    0.793E-01
RMM:   5    -0.753615014830E+02   -0.56217E-02   -0.97635E-02  2175   0.106E+00    0.227E-01
RMM:   6    -0.753648564899E+02   -0.33550E-02   -0.43577E-02  2228   0.676E-01    0.547E-02
RMM:   7    -0.753667971191E+02   -0.19406E-02   -0.20484E-02  2165   0.438E-01    0.375E-02
RMM:   8    -0.753677107449E+02   -0.91363E-03   -0.92677E-03  2218   0.295E-01    0.190E-02
RMM:   9    -0.753681129127E+02   -0.40217E-03   -0.42006E-03  2095   0.200E-01    0.935E-03
RMM:  10    -0.753683231175E+02   -0.21020E-03   -0.22054E-03  1978   0.143E-01    0.548E-03
RMM:  11    -0.753684226929E+02   -0.99575E-04   -0.10308E-03  1963   0.103E-01    0.324E-03
RMM:  12    -0.753684646178E+02   -0.41925E-04   -0.44241E-04  1569   0.763E-02    0.227E-03
RMM:  13    -0.753684779850E+02   -0.13367E-04   -0.16151E-04  1281   0.631E-02
  20 F= -.75368478E+02 E0= -.75368478E+02  d E =-.338565E+00
       N       E                     dE             d eps       ncg     rms          rms(c)
DAV:   1    -0.752938023039E+02    0.74662E-01   -0.70084E+01  1344   0.386E+01    0.428E+00
RMM:   2    -0.755505368550E+02   -0.25673E+00   -0.31234E+00  1703   0.742E+00    0.122E+00
RMM:   3    -0.755623263970E+02   -0.11790E-01   -0.50885E-01  2178   0.254E+00    0.126E+00
RMM:   4    -0.755620359600E+02    0.29044E-03   -0.12812E-01  2108   0.117E+00    0.581E-01
RMM:   5    -0.755652440134E+02   -0.32081E-02   -0.47075E-02  2138   0.699E-01    0.165E-01
RMM:   6    -0.755669157878E+02   -0.16718E-02   -0.21333E-02  2205   0.462E-01    0.375E-02
RMM:   7    -0.755678768278E+02   -0.96104E-03   -0.10085E-02  2128   0.301E-01    0.267E-02
RMM:   8    -0.755683201015E+02   -0.44327E-03   -0.44810E-03  2075   0.204E-01    0.140E-02
RMM:   9    -0.755685149737E+02   -0.19487E-03   -0.20589E-03  2025   0.141E-01    0.659E-03
RMM:  10    -0.755686151064E+02   -0.10013E-03   -0.10553E-03  1940   0.102E-01    0.414E-03
RMM:  11    -0.755686530570E+02   -0.37951E-04   -0.39728E-04  1554   0.742E-02    0.161E-03
RMM:  12    -0.755686620103E+02   -0.89533E-05   -0.11660E-04  1227   0.610E-02
  21 F= -.75568662E+02 E0= -.75568662E+02  d E =-.200184E+00
       N       E                     dE             d eps       ncg     rms          rms(c)
DAV:   1    -0.754030292147E+02    0.16562E+00   -0.59109E+01  1344   0.354E+01    0.389E+00
RMM:   2    -0.756172045920E+02   -0.21418E+00   -0.25971E+00  1698   0.678E+00    0.110E+00
RMM:   3    -0.756217232372E+02   -0.45186E-02   -0.39693E-01  2174   0.229E+00    0.110E+00
RMM:   4    -0.756212228997E+02    0.50034E-03   -0.10751E-01  2095   0.106E+00    0.458E-01
RMM:   5    -0.756241476966E+02   -0.29248E-02   -0.38661E-02  2157   0.623E-01    0.150E-01
RMM:   6    -0.756254710414E+02   -0.13233E-02   -0.17320E-02  2195   0.411E-01    0.366E-02
RMM:   7    -0.756261945602E+02   -0.72352E-03   -0.77710E-03  2140   0.266E-01    0.238E-02
RMM:   8    -0.756265373430E+02   -0.34278E-03   -0.35353E-03  2063   0.180E-01    0.120E-02
RMM:   9    -0.756266874153E+02   -0.15007E-03   -0.15917E-03  2033   0.124E-01    0.639E-03
RMM:  10    -0.756267580178E+02   -0.70603E-04   -0.74919E-04  1864   0.884E-02    0.376E-03
RMM:  11    -0.756267777071E+02   -0.19689E-04   -0.21733E-04  1358   0.658E-02    0.151E-03
RMM:  12    -0.756267813832E+02   -0.36760E-05   -0.69453E-05  1165   0.579E-02
  22 F= -.75626781E+02 E0= -.75626781E+02  d E =-.258303E+00
       N       E                     dE             d eps       ncg     rms          rms(c)
DAV:   1    -0.755415586883E+02    0.85219E-01   -0.71759E+01  1344   0.388E+01    0.467E+00
RMM:   2    -0.757954513041E+02   -0.25389E+00   -0.32109E+00  1708   0.744E+00    0.130E+00
RMM:   3    -0.758040585437E+02   -0.86072E-02   -0.54315E-01  2177   0.253E+00    0.144E+00
RMM:   4    -0.758030056423E+02    0.10529E-02   -0.13354E-01  2135   0.117E+00    0.701E-01
RMM:   5    -0.758056438886E+02   -0.26382E-02   -0.48446E-02  2159   0.698E-01    0.180E-01
RMM:   6    -0.758072459919E+02   -0.16021E-02   -0.20555E-02  2221   0.448E-01    0.372E-02
RMM:   7    -0.758081223195E+02   -0.87633E-03   -0.91638E-03  2154   0.283E-01    0.244E-02
RMM:   8    -0.758084772545E+02   -0.35494E-03   -0.36260E-03  2149   0.185E-01    0.126E-02
RMM:   9    -0.758086260677E+02   -0.14881E-03   -0.15852E-03  2026   0.124E-01    0.533E-03
RMM:  10    -0.758086927280E+02   -0.66660E-04   -0.70012E-04  1796   0.866E-02    0.375E-03
RMM:  11    -0.758087115469E+02   -0.18819E-04   -0.20960E-04  1345   0.651E-02    0.221E-03
RMM:  12    -0.758087163122E+02   -0.47654E-05   -0.79833E-05  1159   0.574E-02
  23 F= -.75808716E+02 E0= -.75808716E+02  d E =-.181935E+00
       N       E                     dE             d eps       ncg     rms          rms(c)
DAV:   1    -0.756800444834E+02    0.12867E+00   -0.49838E+01  1344   0.325E+01    0.361E+00
RMM:   2    -0.758466448806E+02   -0.16660E+00   -0.21097E+00  1727   0.616E+00    0.102E+00
RMM:   3    -0.758519085153E+02   -0.52636E-02   -0.33016E-01  2174   0.205E+00    0.110E+00
RMM:   4    -0.758508899373E+02    0.10186E-02   -0.89890E-02  2124   0.947E-01    0.513E-01
RMM:   5    -0.758529671942E+02   -0.20773E-02   -0.32947E-02  2172   0.568E-01    0.151E-01
RMM:   6    -0.758540445815E+02   -0.10774E-02   -0.14022E-02  2225   0.368E-01    0.314E-02
RMM:   7    -0.758546364331E+02   -0.59185E-03   -0.62303E-03  2129   0.235E-01    0.203E-02
RMM:   8    -0.758548788508E+02   -0.24242E-03   -0.25179E-03  2120   0.155E-01    0.105E-02
RMM:   9    -0.758549818972E+02   -0.10305E-03   -0.11077E-03  2032   0.105E-01    0.520E-03
RMM:  10    -0.758550201178E+02   -0.38221E-04   -0.41370E-04  1602   0.742E-02    0.331E-03
RMM:  11    -0.758550265536E+02   -0.64358E-05   -0.92613E-05  1166   0.597E-02
  24 F= -.75855027E+02 E0= -.75855027E+02  d E =-.228245E+00
       N       E                     dE             d eps       ncg     rms          rms(c)
DAV:   1    -0.759282502954E+02   -0.73230E-01   -0.74566E+00  1600   0.124E+01    0.253E+00
RMM:   2    -0.759459081275E+02   -0.17658E-01   -0.39820E-01  1682   0.269E+00    0.654E-01
RMM:   3    -0.759369238913E+02    0.89842E-02   -0.35962E-02  2044   0.780E-01    0.443E-01
RMM:   4    -0.759350323977E+02    0.18915E-02   -0.14074E-02  1861   0.387E-01    0.139E-01
RMM:   5    -0.759353545187E+02   -0.32212E-03   -0.49304E-03  2225   0.225E-01    0.751E-02
RMM:   6    -0.759355271966E+02   -0.17268E-03   -0.21397E-03  2028   0.138E-01    0.234E-02
RMM:   7    -0.759356056539E+02   -0.78457E-04   -0.10165E-03  1986   0.965E-02    0.178E-02
RMM:   8    -0.759356401799E+02   -0.34526E-04   -0.42584E-04  1695   0.680E-02    0.440E-03
RMM:   9    -0.759356453853E+02   -0.52054E-05   -0.83036E-05  1184   0.521E-02
  25 F= -.75935645E+02 E0= -.75935645E+02  d E =-.806188E-01
       N       E                     dE             d eps       ncg     rms          rms(c)
DAV:   1    -0.759456008638E+02   -0.99607E-02   -0.29641E+00  1472   0.785E+00    0.160E+00
RMM:   2    -0.759528970336E+02   -0.72962E-02   -0.16082E-01  1684   0.173E+00    0.430E-01
RMM:   3    -0.759495858334E+02    0.33112E-02   -0.15124E-02  2078   0.504E-01    0.297E-01
RMM:   4    -0.759487937307E+02    0.79210E-03   -0.61457E-03  1865   0.253E-01    0.843E-02
RMM:   5    -0.759489459474E+02   -0.15222E-03   -0.21829E-03  2148   0.147E-01    0.476E-02
RMM:   6    -0.759490230971E+02   -0.77150E-04   -0.95143E-04  1974   0.928E-02    0.157E-02
RMM:   7    -0.759490554727E+02   -0.32376E-04   -0.43362E-04  1884   0.650E-02    0.996E-03
RMM:   8    -0.759490525236E+02    0.29491E-05   -0.83081E-06   929   0.461E-02
  26 F= -.75949053E+02 E0= -.75949053E+02  d E =-.940260E-01
       N       E                     dE             d eps       ncg     rms          rms(c)
DAV:   1    -0.759878766392E+02   -0.38821E-01   -0.91391E+00  1344   0.144E+01    0.162E+00
RMM:   2    -0.760125209825E+02   -0.24644E-01   -0.36021E-01  1739   0.268E+00    0.499E-01
RMM:   3    -0.760108570924E+02    0.16639E-02   -0.44328E-02  2156   0.840E-01    0.416E-01
RMM:   4    -0.760098666872E+02    0.99041E-03   -0.15325E-02  2015   0.400E-01    0.118E-01
RMM:   5    -0.760102855628E+02   -0.41888E-03   -0.55068E-03  2220   0.235E-01    0.545E-02
RMM:   6    -0.760104414641E+02   -0.15590E-03   -0.26955E-03  2057   0.158E-01    0.196E-02
RMM:   7    -0.760105241757E+02   -0.82712E-04   -0.11250E-03  2053   0.105E-01    0.108E-02
RMM:   8    -0.760105653578E+02   -0.41182E-04   -0.45856E-04  1722   0.729E-02    0.464E-03
RMM:   9    -0.760105695091E+02   -0.41512E-05   -0.68049E-05  1158   0.550E-02
  27 F= -.76010570E+02 E0= -.76010570E+02  d E =-.615170E-01
       N       E                     dE             d eps       ncg     rms          rms(c)
DAV:   1    -0.759935522425E+02    0.17013E-01   -0.17076E+01  1344   0.197E+01    0.225E+00
RMM:   2    -0.760403379469E+02   -0.46786E-01   -0.68188E-01  1737   0.368E+00    0.690E-01
RMM:   3    -0.760379015542E+02    0.24364E-02   -0.87702E-02  2160   0.116E+00    0.588E-01
RMM:   4    -0.760360256746E+02    0.18759E-02   -0.28626E-02  2016   0.557E-01    0.170E-01
RMM:   5    -0.760367931404E+02   -0.76747E-03   -0.10235E-02  2232   0.327E-01    0.744E-02
RMM:   6    -0.760370739961E+02   -0.28086E-03   -0.50372E-03  2128   0.219E-01    0.265E-02
RMM:   7    -0.760372309569E+02   -0.15696E-03   -0.21002E-03  2081   0.144E-01    0.146E-02
RMM:   8    -0.760373215976E+02   -0.90641E-04   -0.98659E-04  1998   0.998E-02    0.652E-03
RMM:   9    -0.760373508464E+02   -0.29249E-04   -0.31722E-04  1597   0.696E-02    0.340E-03
RMM:  10    -0.760373556572E+02   -0.48108E-05   -0.76036E-05  1152   0.566E-02
  28 F= -.76037356E+02 E0= -.76037356E+02  d E =-.883031E-01
       N       E                     dE             d eps       ncg     rms          rms(c)
DAV:   1    -0.760474470615E+02   -0.10096E-01   -0.79854E+00  1344   0.135E+01    0.168E+00
RMM:   2    -0.760703588004E+02   -0.22912E-01   -0.31670E-01  1723   0.245E+00    0.452E-01
RMM:   3    -0.760693012684E+02    0.10575E-02   -0.42563E-02  2155   0.805E-01    0.345E-01
RMM:   4    -0.760688685777E+02    0.43269E-03   -0.13176E-02  2068   0.379E-01    0.105E-01
RMM:   5    -0.760692453574E+02   -0.37678E-03   -0.48882E-03  2203   0.221E-01    0.516E-02
RMM:   6    -0.760694090633E+02   -0.16371E-03   -0.20909E-03  2108   0.142E-01    0.202E-02
RMM:   7    -0.760694846703E+02   -0.75607E-04   -0.89595E-04  2002   0.945E-02    0.953E-03
RMM:   8    -0.760695094390E+02   -0.24769E-04   -0.28617E-04  1519   0.660E-02    0.502E-03
RMM:   9    -0.760695152977E+02   -0.58588E-05   -0.92450E-05  1232   0.543E-02
  29 F= -.76069515E+02 E0= -.76069515E+02  d E =-.321596E-01
       N       E                     dE             d eps       ncg     rms          rms(c)
DAV:   1    -0.760669822780E+02    0.25272E-02   -0.25541E+00  1360   0.762E+00    0.940E-01
RMM:   2    -0.760740628923E+02   -0.70806E-02   -0.98939E-02  1726   0.138E+00    0.248E-01
RMM:   3    -0.760737905859E+02    0.27231E-03   -0.13046E-02  2173   0.453E-01    0.185E-01
RMM:   4    -0.760736746210E+02    0.11596E-03   -0.43133E-03  2064   0.213E-01    0.564E-02
RMM:   5    -0.760738114844E+02   -0.13686E-03   -0.17116E-03  2094   0.128E-01    0.286E-02
RMM:   6    -0.760738707766E+02   -0.59292E-04   -0.73214E-04  2016   0.854E-02    0.109E-02
RMM:   7    -0.760738799974E+02   -0.92208E-05   -0.13779E-04  1247   0.581E-02
  30 F= -.76073880E+02 E0= -.76073880E+02  d E =-.365243E-01
       N       E                     dE             d eps       ncg     rms          rms(c)
DAV:   1    -0.760807944236E+02   -0.69236E-02   -0.81033E+00  1344   0.135E+01    0.114E+00
RMM:   2    -0.761052714243E+02   -0.24477E-01   -0.29606E-01  1720   0.237E+00    0.333E-01
RMM:   3    -0.761055927567E+02   -0.32133E-03   -0.39671E-02  2181   0.779E-01    0.303E-01
RMM:   4    -0.761054247651E+02    0.16799E-03   -0.13345E-02  2078   0.355E-01    0.107E-01
RMM:   5    -0.761058434024E+02   -0.41864E-03   -0.49536E-03  2134   0.212E-01    0.480E-02
RMM:   6    -0.761059732856E+02   -0.12988E-03   -0.21816E-03  2091   0.141E-01    0.122E-02
RMM:   7    -0.761060531776E+02   -0.79892E-04   -0.90612E-04  1916   0.925E-02    0.828E-03
RMM:   8    -0.761060770100E+02   -0.23832E-04   -0.27826E-04  1503   0.654E-02    0.389E-03
RMM:   9    -0.761060817686E+02   -0.47587E-05   -0.82467E-05  1177   0.542E-02
  31 F= -.76106082E+02 E0= -.76106082E+02  d E =-.322018E-01
       N       E                     dE             d eps       ncg     rms          rms(c)
DAV:   1    -0.760329423808E+02    0.73135E-01   -0.26797E+01  1344   0.246E+01    0.221E+00
RMM:   2    -0.761182477270E+02   -0.85305E-01   -0.10296E+00  1719   0.436E+00    0.619E-01
RMM:   3    -0.761209454547E+02   -0.26977E-02   -0.15255E-01  2182   0.146E+00    0.580E-01
RMM:   4    -0.761205414791E+02    0.40398E-03   -0.44698E-02  2100   0.671E-01    0.224E-01
RMM:   5    -0.761217684330E+02   -0.12270E-02   -0.15377E-02  2168   0.385E-01    0.882E-02
RMM:   6    -0.761221947372E+02   -0.42630E-03   -0.65820E-03  2185   0.251E-01    0.217E-02
RMM:   7    -0.761224482697E+02   -0.25353E-03   -0.27946E-03  2101   0.160E-01    0.144E-02
RMM:   8    -0.761225574804E+02   -0.10921E-03   -0.11673E-03  1965   0.106E-01    0.672E-03
RMM:   9    -0.761225968134E+02   -0.39333E-04   -0.43622E-04  1747   0.732E-02    0.467E-03
RMM:  10    -0.761226038387E+02   -0.70253E-05   -0.97066E-05  1190   0.571E-02
  32 F= -.76122604E+02 E0= -.76122604E+02  d E =-.487238E-01
       N       E                     dE             d eps       ncg     rms          rms(c)
DAV:   1    -0.761206463842E+02    0.19504E-02   -0.11260E+00  1488   0.503E+00    0.411E-01
RMM:   2    -0.761239042626E+02   -0.32579E-02   -0.39543E-02  1725   0.869E-01    0.125E-01
RMM:   3    -0.761237815796E+02    0.12268E-03   -0.42494E-03  2107   0.268E-01    0.114E-01
RMM:   4    -0.761237253685E+02    0.56211E-04   -0.13933E-03  1923   0.114E-01    0.403E-02
RMM:   5    -0.761237655781E+02   -0.40210E-04   -0.49902E-04  1920   0.696E-02    0.167E-02
RMM:   6    -0.761237725946E+02   -0.70165E-05   -0.19214E-04  1589   0.480E-02
  33 F= -.76123773E+02 E0= -.76123773E+02  d E =-.498926E-01
       N       E                     dE             d eps       ncg     rms          rms(c)
DAV:   1    -0.761216145810E+02    0.21510E-02   -0.67505E+00  1344   0.123E+01    0.113E+00
RMM:   2    -0.761438470705E+02   -0.22232E-01   -0.25314E-01  1685   0.219E+00    0.302E-01
RMM:   3    -0.761437392212E+02    0.10785E-03   -0.30510E-02  2170   0.696E-01    0.290E-01
RMM:   4    -0.761436077260E+02    0.13150E-03   -0.88408E-03  2094   0.290E-01    0.128E-01
RMM:   5    -0.761438737344E+02   -0.26601E-03   -0.34388E-03  2090   0.175E-01    0.424E-02
RMM:   6    -0.761439678231E+02   -0.94089E-04   -0.15374E-03  2032   0.115E-01    0.120E-02
RMM:   7    -0.761440227648E+02   -0.54942E-04   -0.62137E-04  1715   0.765E-02    0.762E-03
RMM:   8    -0.761440358629E+02   -0.13098E-04   -0.16328E-04  1332   0.561E-02
  34 F= -.76144036E+02 E0= -.76144036E+02  d E =-.202633E-01
       N       E                     dE             d eps       ncg     rms          rms(c)
DAV:   1    -0.761337397717E+02    0.10283E-01   -0.46662E+00  1344   0.102E+01    0.935E-01
RMM:   2    -0.761491924888E+02   -0.15453E-01   -0.17563E-01  1691   0.183E+00    0.248E-01
RMM:   3    -0.761493509021E+02   -0.15841E-03   -0.22747E-02  2192   0.599E-01    0.234E-01
RMM:   4    -0.761493407788E+02    0.10123E-04   -0.72339E-03  2098   0.258E-01    0.964E-02
RMM:   5    -0.761495823277E+02   -0.24155E-03   -0.28742E-03  2080   0.157E-01    0.358E-02
RMM:   6    -0.761496671895E+02   -0.84862E-04   -0.12764E-03  2004   0.105E-01    0.102E-02
RMM:   7    -0.761497094898E+02   -0.42300E-04   -0.48564E-04  1617   0.706E-02    0.663E-03
RMM:   8    -0.761497175960E+02   -0.81062E-05   -0.11407E-04  1235   0.536E-02
  35 F= -.76149718E+02 E0= -.76149718E+02  d E =-.259450E-01
       N       E                     dE             d eps       ncg     rms          rms(c)
DAV:   1    -0.761540134318E+02   -0.43039E-02   -0.40940E+00  1344   0.944E+00    0.785E-01
RMM:   2    -0.761656137989E+02   -0.11600E-01   -0.13566E-01  1687   0.162E+00    0.222E-01
RMM:   3    -0.761658015286E+02   -0.18773E-03   -0.18092E-02  2184   0.530E-01    0.204E-01
RMM:   4    -0.761657479060E+02    0.53623E-04   -0.64975E-03  2042   0.241E-01    0.677E-02
RMM:   5    -0.761659448712E+02   -0.19697E-03   -0.23769E-03  2065   0.144E-01    0.330E-02
RMM:   6    -0.761660102816E+02   -0.65410E-04   -0.10837E-03  2009   0.982E-02    0.776E-03
RMM:   7    -0.761660420294E+02   -0.31748E-04   -0.37384E-04  1496   0.660E-02    0.582E-03
RMM:   8    -0.761660487673E+02   -0.67379E-05   -0.10308E-04  1248   0.534E-02
  36 F= -.76166049E+02 E0= -.76166049E+02  d E =-.163312E-01
       N       E                     dE             d eps       ncg     rms          rms(c)
DAV:   1    -0.761357341317E+02    0.30308E-01   -0.15077E+01  1344   0.181E+01    0.155E+00
RMM:   2    -0.761802305922E+02   -0.44496E-01   -0.52075E-01  1685   0.312E+00    0.433E-01
RMM:   3    -0.761815961711E+02   -0.13656E-02   -0.75425E-02  2188   0.103E+00    0.407E-01
RMM:   4    -0.761814104503E+02    0.18572E-03   -0.23544E-02  2072   0.471E-01    0.147E-01
RMM:   5    -0.761820469200E+02   -0.63647E-03   -0.80702E-03  2144   0.274E-01    0.633E-02
RMM:   6    -0.761822782184E+02   -0.23130E-03   -0.36812E-03  2136   0.183E-01    0.159E-02
RMM:   7    -0.761824200727E+02   -0.14185E-03   -0.15983E-03  1908   0.119E-01    0.111E-02
RMM:   8    -0.761824867823E+02   -0.66710E-04   -0.72830E-04  1859   0.841E-02    0.598E-03
RMM:   9    -0.761825040022E+02   -0.17220E-04   -0.21054E-04  1342   0.610E-02    0.199E-03
RMM:  10    -0.761825068728E+02   -0.28706E-05   -0.62872E-05  1105   0.533E-02
  37 F= -.76182507E+02 E0= -.76182507E+02  d E =-.327893E-01
       N       E                     dE             d eps       ncg     rms          rms(c)
DAV:   1    -0.761775034066E+02    0.50006E-02   -0.20577E+00  1376   0.670E+00    0.552E-01
RMM:   2    -0.761833181429E+02   -0.58147E-02   -0.68169E-02  1687   0.115E+00    0.156E-01
RMM:   3    -0.761834702319E+02   -0.15209E-03   -0.92825E-03  2184   0.381E-01    0.143E-01
RMM:   4    -0.761834585831E+02    0.11649E-04   -0.34395E-03  2034   0.173E-01    0.473E-02
RMM:   5    -0.761835680599E+02   -0.10948E-03   -0.13084E-03  2017   0.106E-01    0.234E-02
RMM:   6    -0.761836051516E+02   -0.37092E-04   -0.59953E-04  1896   0.737E-02    0.560E-03
RMM:   7    -0.761836105111E+02   -0.53595E-05   -0.88224E-05  1067   0.510E-02
  38 F= -.76183611E+02 E0= -.76183611E+02  d E =-.338929E-01
       N       E                     dE             d eps       ncg     rms          rms(c)
DAV:   1    -0.761705623323E+02    0.13043E-01   -0.97875E+00  1344   0.146E+01    0.112E+00
RMM:   2    -0.761989411883E+02   -0.28379E-01   -0.31808E-01  1693   0.243E+00    0.293E-01
RMM:   3    -0.762001824171E+02   -0.12412E-02   -0.45833E-02  2183   0.819E-01    0.272E-01
RMM:   4    -0.762004580543E+02   -0.27564E-03   -0.13846E-02  2122   0.359E-01    0.126E-01
RMM:   5    -0.762008973769E+02   -0.43932E-03   -0.54927E-03  2104   0.217E-01    0.454E-02
RMM:   6    -0.762010965388E+02   -0.19916E-03   -0.23284E-03  2046   0.141E-01    0.113E-02
RMM:   7    -0.762011917595E+02   -0.95221E-04   -0.10153E-03  1795   0.932E-02    0.880E-03
RMM:   8    -0.762012208248E+02   -0.29065E-04   -0.32733E-04  1536   0.655E-02    0.376E-03
RMM:   9    -0.762012262253E+02   -0.54005E-05   -0.87527E-05  1131   0.535E-02
  39 F= -.76201226E+02 E0= -.76201226E+02  d E =-.176157E-01
       N       E                     dE             d eps       ncg     rms          rms(c)
DAV:   1    -0.761619755074E+02    0.39245E-01   -0.13886E+01  1344   0.174E+01    0.136E+00
RMM:   2    -0.762029005430E+02   -0.40925E-01   -0.45890E-01  1692   0.291E+00    0.350E-01
RMM:   3    -0.762050049983E+02   -0.21045E-02   -0.68594E-02  2184   0.986E-01    0.326E-01
RMM:   4    -0.762054238810E+02   -0.41888E-03   -0.20144E-02  2138   0.436E-01    0.151E-01
RMM:   5    -0.762060370508E+02   -0.61317E-03   -0.77210E-03  2132   0.260E-01    0.550E-02
RMM:   6    -0.762063180450E+02   -0.28099E-03   -0.32508E-03  2100   0.168E-01    0.138E-02
RMM:   7    -0.762064500386E+02   -0.13199E-03   -0.14053E-03  1880   0.109E-01    0.105E-02
RMM:   8    -0.762064961571E+02   -0.46119E-04   -0.50545E-04  1717   0.750E-02    0.481E-03
RMM:   9    -0.762065068156E+02   -0.10658E-04   -0.14045E-04  1214   0.572E-02
  40 F= -.76206507E+02 E0= -.76206507E+02  d E =-.228963E-01
       N       E                     dE             d eps       ncg     rms          rms(c)
DAV:   1    -0.761823198616E+02    0.24176E-01   -0.12713E+01  1344   0.170E+01    0.113E+00
RMM:   2    -0.762172039338E+02   -0.34884E-01   -0.39804E-01  1740   0.276E+00    0.355E-01
RMM:   3    -0.762211975596E+02   -0.39936E-02   -0.67746E-02  2210   0.968E-01    0.316E-01
RMM:   4    -0.762218279002E+02   -0.63034E-03   -0.19399E-02  2171   0.441E-01    0.141E-01
RMM:   5    -0.762224410839E+02   -0.61318E-03   -0.75157E-03  2139   0.264E-01    0.472E-02
RMM:   6    -0.762227037906E+02   -0.26271E-03   -0.31971E-03  2138   0.172E-01    0.195E-02
RMM:   7    -0.762228344665E+02   -0.13068E-03   -0.14177E-03  1956   0.112E-01    0.109E-02
RMM:   8    -0.762228820741E+02   -0.47608E-04   -0.51729E-04  1699   0.764E-02    0.491E-03
RMM:   9    -0.762228923708E+02   -0.10297E-04   -0.14259E-04  1252   0.583E-02
  41 F= -.76222892E+02 E0= -.76222892E+02  d E =-.163856E-01
       N       E                     dE             d eps       ncg     rms          rms(c)
DAV:   1    -0.761075134094E+02    0.11537E+00   -0.33669E+01  1344   0.277E+01    0.186E+00
RMM:   2    -0.762075949560E+02   -0.10008E+00   -0.11416E+00  1742   0.456E+00    0.597E-01
RMM:   3    -0.762231300100E+02   -0.15535E-01   -0.22576E-01  2211   0.165E+00    0.546E-01
RMM:   4    -0.762251385080E+02   -0.20085E-02   -0.55410E-02  2184   0.758E-01    0.267E-01
RMM:   5    -0.762265110294E+02   -0.13725E-02   -0.19054E-02  2155   0.443E-01    0.783E-02
RMM:   6    -0.762272254405E+02   -0.71441E-03   -0.84096E-03  2233   0.287E-01    0.357E-02
RMM:   7    -0.762275668082E+02   -0.34137E-03   -0.36890E-03  2101   0.182E-01    0.206E-02
RMM:   8    -0.762277052521E+02   -0.13844E-03   -0.14648E-03  2055   0.121E-01    0.878E-03
RMM:   9    -0.762277602486E+02   -0.54997E-04   -0.62830E-04  1831   0.832E-02    0.374E-03
RMM:  10    -0.762277797723E+02   -0.19524E-04   -0.22864E-04  1435   0.632E-02    0.267E-03
RMM:  11    -0.762277804562E+02   -0.68393E-06   -0.37621E-05  1044   0.542E-02
  42 F= -.76227780E+02 E0= -.76227780E+02  d E =-.212736E-01
       N       E                     dE             d eps       ncg     rms          rms(c)
DAV:   1    -0.762190781028E+02    0.87017E-02   -0.36414E+00  1344   0.911E+00    0.623E-01
RMM:   2    -0.762284178734E+02   -0.93398E-02   -0.10788E-01  1729   0.146E+00    0.178E-01
RMM:   3    -0.762289405495E+02   -0.52268E-03   -0.14492E-02  2178   0.475E-01    0.149E-01
RMM:   4    -0.762290208973E+02   -0.80348E-04   -0.43827E-03  2084   0.201E-01    0.584E-02
RMM:   5    -0.762291740417E+02   -0.15314E-03   -0.17566E-03  2046   0.123E-01    0.250E-02
RMM:   6    -0.762292314011E+02   -0.57359E-04   -0.72575E-04  1862   0.819E-02    0.685E-03
RMM:   7    -0.762292449789E+02   -0.13578E-04   -0.16995E-04  1245   0.573E-02
  43 F= -.76229245E+02 E0= -.76229245E+02  d E =-.227382E-01
       N       E                     dE             d eps       ncg     rms          rms(c)
DAV:   1    -0.762101457347E+02    0.19086E-01   -0.14771E+01  1344   0.185E+01    0.123E+00
RMM:   2    -0.762513119217E+02   -0.41166E-01   -0.47708E-01  1746   0.307E+00    0.392E-01
RMM:   3    -0.762557931383E+02   -0.44812E-02   -0.79887E-02  2199   0.105E+00    0.348E-01
RMM:   4    -0.762562660250E+02   -0.47289E-03   -0.22208E-02  2172   0.480E-01    0.164E-01
RMM:   5    -0.762569123482E+02   -0.64632E-03   -0.85852E-03  2131   0.286E-01    0.523E-02
RMM:   6    -0.762572080432E+02   -0.29569E-03   -0.37159E-03  2189   0.187E-01    0.182E-02
RMM:   7    -0.762573644445E+02   -0.15640E-03   -0.16886E-03  2025   0.121E-01    0.106E-02
RMM:   8    -0.762574240204E+02   -0.59576E-04   -0.63444E-04  1805   0.818E-02    0.543E-03
RMM:   9    -0.762574371244E+02   -0.13104E-04   -0.17239E-04  1302   0.601E-02
  44 F= -.76257437E+02 E0= -.76257437E+02  d E =-.281921E-01
       N       E                     dE             d eps       ncg     rms          rms(c)
DAV:   1    -0.757659000147E+02    0.49152E+00   -0.11199E+02  1344   0.512E+01    0.387E+00
RMM:   2    -0.761744680580E+02   -0.40857E+00   -0.47220E+00  1738   0.901E+00    0.123E+00
RMM:   3    -0.762646898366E+02   -0.90222E-01   -0.11931E+00  2209   0.341E+00    0.117E+00
RMM:   4    -0.762765151382E+02   -0.11825E-01   -0.25726E-01  2193   0.160E+00    0.673E-01
RMM:   5    -0.762796321140E+02   -0.31170E-02   -0.69802E-02  2137   0.894E-01    0.181E-01
RMM:   6    -0.762824130566E+02   -0.27809E-02   -0.31449E-02  2266   0.569E-01    0.699E-02
RMM:   7    -0.762835555257E+02   -0.11425E-02   -0.12522E-02  2189   0.346E-01    0.336E-02
RMM:   8    -0.762840201382E+02   -0.46461E-03   -0.49161E-03  2227   0.223E-01    0.117E-02
RMM:   9    -0.762842303643E+02   -0.21023E-03   -0.22230E-03  2068   0.146E-01    0.109E-02
RMM:  10    -0.762843183869E+02   -0.88023E-04   -0.94908E-04  1987   0.999E-02    0.639E-03
RMM:  11    -0.762843501137E+02   -0.31727E-04   -0.34793E-04  1575   0.715E-02    0.298E-03
RMM:  12    -0.762843544648E+02   -0.43511E-05   -0.71199E-05  1114   0.584E-02
  45 F= -.76284354E+02 E0= -.76284354E+02  d E =-.551095E-01
       N       E                     dE             d eps       ncg     rms          rms(c)
DAV:   1    -0.762724441363E+02    0.11906E-01   -0.81013E+00  1344   0.137E+01    0.106E+00
RMM:   2    -0.762952326973E+02   -0.22789E-01   -0.26805E-01  1761   0.231E+00    0.296E-01
RMM:   3    -0.762976641314E+02   -0.24314E-02   -0.43913E-02  2217   0.800E-01    0.252E-01
RMM:   4    -0.762980058986E+02   -0.34177E-03   -0.14508E-02  2172   0.375E-01    0.964E-02
RMM:   5    -0.762985143146E+02   -0.50842E-03   -0.60418E-03  2160   0.234E-01    0.384E-02
RMM:   6    -0.762987195492E+02   -0.20523E-03   -0.25639E-03  2107   0.155E-01    0.114E-02
RMM:   7    -0.762988255647E+02   -0.10602E-03   -0.11472E-03  2018   0.104E-01    0.794E-03
RMM:   8    -0.762988619854E+02   -0.36421E-04   -0.40175E-04  1633   0.724E-02    0.357E-03
RMM:   9    -0.762988667923E+02   -0.48070E-05   -0.88850E-05  1173   0.577E-02
  46 F= -.76298867E+02 E0= -.76298867E+02  d E =-.145123E-01
       N       E                     dE             d eps       ncg     rms          rms(c)
DAV:   1    -0.761824341220E+02    0.11643E+00   -0.33828E+01  1344   0.281E+01    0.227E+00
RMM:   2    -0.762848714860E+02   -0.10244E+00   -0.12058E+00  1759   0.481E+00    0.613E-01
RMM:   3    -0.762998511735E+02   -0.14980E-01   -0.22742E-01  2211   0.170E+00    0.531E-01
RMM:   4    -0.763014744189E+02   -0.16232E-02   -0.63593E-02  2176   0.816E-01    0.221E-01
RMM:   5    -0.763033563638E+02   -0.18819E-02   -0.23881E-02  2214   0.487E-01    0.820E-02
RMM:   6    -0.763041641412E+02   -0.80778E-03   -0.10085E-02  2261   0.316E-01    0.234E-02
RMM:   7    -0.763045817419E+02   -0.41760E-03   -0.45250E-03  2144   0.205E-01    0.158E-02
RMM:   8    -0.763047632422E+02   -0.18150E-03   -0.19304E-03  2082   0.137E-01    0.882E-03
RMM:   9    -0.763048414521E+02   -0.78210E-04   -0.86008E-04  2054   0.945E-02    0.492E-03
RMM:  10    -0.763048667920E+02   -0.25340E-04   -0.28775E-04  1451   0.678E-02    0.319E-03
RMM:  11    -0.763048701755E+02   -0.33835E-05   -0.69938E-05  1150   0.577E-02
  47 F= -.76304870E+02 E0= -.76304870E+02  d E =-.205157E-01
       N       E                     dE             d eps       ncg     rms          rms(c)
DAV:   1    -0.762951611137E+02    0.97057E-02   -0.38081E+00  1344   0.944E+00    0.723E-01
RMM:   2    -0.763053732820E+02   -0.10212E-01   -0.12050E-01  1759   0.157E+00    0.205E-01
RMM:   3    -0.763063117656E+02   -0.93848E-03   -0.17955E-02  2207   0.521E-01    0.183E-01
RMM:   4    -0.763063520076E+02   -0.40242E-04   -0.55361E-03  2159   0.231E-01    0.744E-02
RMM:   5    -0.763065253811E+02   -0.17337E-03   -0.22093E-03  2064   0.143E-01    0.264E-02
RMM:   6    -0.763065972436E+02   -0.71862E-04   -0.96514E-04  2034   0.963E-02    0.757E-03
RMM:   7    -0.763066224614E+02   -0.25218E-04   -0.29041E-04  1371   0.658E-02    0.499E-03
RMM:   8    -0.763066260982E+02   -0.36368E-05   -0.73538E-05  1172   0.551E-02
  48 F= -.76306626E+02 E0= -.76306626E+02  d E =-.222716E-01
       N       E                     dE             d eps       ncg     rms          rms(c)
DAV:   1    -0.763172025683E+02   -0.10580E-01   -0.47043E-01  1520   0.319E+00    0.443E-01
RMM:   2    -0.763189038874E+02   -0.17013E-02   -0.22683E-02  1700   0.647E-01    0.122E-01
RMM:   3    -0.763186878995E+02    0.21599E-03   -0.23156E-03  2057   0.196E-01    0.110E-01
RMM:   4    -0.763186401833E+02    0.47716E-04   -0.89155E-04  1889   0.926E-02    0.375E-02
RMM:   5    -0.763186517196E+02   -0.11536E-04   -0.23098E-04  1518   0.579E-02    0.142E-02
RMM:   6    -0.763186560277E+02   -0.43081E-05   -0.92625E-05  1150   0.450E-02
  49 F= -.76318656E+02 E0= -.76318656E+02  d E =-.120299E-01
       N       E                     dE             d eps       ncg     rms          rms(c)
DAV:   1    -0.763219815106E+02   -0.33298E-02   -0.42332E+00  1344   0.956E+00    0.136E+00
RMM:   2    -0.763373911283E+02   -0.15410E-01   -0.20516E-01  1702   0.195E+00    0.366E-01
RMM:   3    -0.763358064318E+02    0.15847E-02   -0.23161E-02  2099   0.606E-01    0.329E-01
RMM:   4    -0.763354644823E+02    0.34195E-03   -0.90359E-03  2027   0.290E-01    0.110E-01
RMM:   5    -0.763356938572E+02   -0.22937E-03   -0.33569E-03  2102   0.174E-01    0.458E-02
RMM:   6    -0.763358130779E+02   -0.11922E-03   -0.14330E-03  2019   0.111E-01    0.163E-02
RMM:   7    -0.763358605109E+02   -0.47433E-04   -0.54164E-04  1747   0.736E-02    0.692E-03
RMM:   8    -0.763358663631E+02   -0.58522E-05   -0.94364E-05  1200   0.538E-02
  50 F= -.76335866E+02 E0= -.76335866E+02  d E =-.292403E-01
       N       E                     dE             d eps       ncg     rms          rms(c)
DAV:   1    -0.763427219318E+02   -0.68614E-02   -0.12850E+00  1344   0.535E+00    0.657E-01
RMM:   2    -0.763469057828E+02   -0.41839E-02   -0.51627E-02  1705   0.976E-01    0.159E-01
RMM:   3    -0.763466716153E+02    0.23417E-03   -0.65140E-03  2154   0.318E-01    0.131E-01
RMM:   4    -0.763466225042E+02    0.49111E-04   -0.25051E-03  1966   0.153E-01    0.367E-02
RMM:   5    -0.763466992324E+02   -0.76728E-04   -0.96757E-04  2000   0.934E-02    0.177E-02
RMM:   6    -0.763467209211E+02   -0.21689E-04   -0.30039E-04  1543   0.615E-02    0.494E-03
RMM:   7    -0.763467258335E+02   -0.49124E-05   -0.84609E-05  1215   0.480E-02
  51 F= -.76346726E+02 E0= -.76346726E+02  d E =-.108595E-01
       N       E                     dE             d eps       ncg     rms          rms(c)
DAV:   1    -0.763435393830E+02    0.31815E-02   -0.29542E+00  1344   0.811E+00    0.100E+00
RMM:   2    -0.763530842944E+02   -0.95449E-02   -0.11808E-01  1707   0.148E+00    0.241E-01
RMM:   3    -0.763525689392E+02    0.51536E-03   -0.14682E-02  2162   0.475E-01    0.199E-01
RMM:   4    -0.763524301072E+02    0.13883E-03   -0.54299E-03  1971   0.227E-01    0.563E-02
RMM:   5    -0.763525944824E+02   -0.16438E-03   -0.20725E-03  2114   0.136E-01    0.271E-02
RMM:   6    -0.763526601460E+02   -0.65664E-04   -0.85351E-04  1987   0.886E-02    0.905E-03
RMM:   7    -0.763526770364E+02   -0.16890E-04   -0.22088E-04  1369   0.592E-02    0.462E-03
RMM:   8    -0.763526842176E+02   -0.71812E-05   -0.11260E-04  1310   0.502E-02
  52 F= -.76352684E+02 E0= -.76352684E+02  d E =-.168179E-01
       N       E                     dE             d eps       ncg     rms          rms(c)
DAV:   1    -0.763560976758E+02   -0.34206E-02   -0.18912E+00  1344   0.655E+00    0.491E-01
RMM:   2    -0.763608598278E+02   -0.47622E-02   -0.57114E-02  1739   0.105E+00    0.152E-01
RMM:   3    -0.763610794614E+02   -0.21963E-03   -0.79842E-03  2150   0.346E-01    0.135E-01
RMM:   4    -0.763610902003E+02   -0.10739E-04   -0.26515E-03  2075   0.161E-01    0.479E-02
RMM:   5    -0.763611782424E+02   -0.88042E-04   -0.10901E-03  2049   0.101E-01    0.175E-02
RMM:   6    -0.763612050204E+02   -0.26778E-04   -0.37121E-04  1644   0.663E-02    0.504E-03
RMM:   7    -0.763612094465E+02   -0.44261E-05   -0.79356E-05  1185   0.510E-02
  53 F= -.76361209E+02 E0= -.76361209E+02  d E =-.852523E-02
       N       E                     dE             d eps       ncg     rms          rms(c)
DAV:   1    -0.763391601168E+02    0.22045E-01   -0.10683E+01  1344   0.156E+01    0.117E+00
RMM:   2    -0.763667526587E+02   -0.27593E-01   -0.33178E-01  1735   0.249E+00    0.364E-01
RMM:   3    -0.763686548354E+02   -0.19022E-02   -0.51458E-02  2193   0.830E-01    0.328E-01
RMM:   4    -0.763687157963E+02   -0.60961E-04   -0.14744E-02  2118   0.378E-01    0.127E-01
RMM:   5    -0.763691451674E+02   -0.42937E-03   -0.56328E-03  2130   0.230E-01    0.422E-02
RMM:   6    -0.763693245326E+02   -0.17937E-03   -0.23493E-03  2124   0.151E-01    0.129E-02
RMM:   7    -0.763694185487E+02   -0.94016E-04   -0.10253E-03  2013   0.991E-02    0.901E-03
RMM:   8    -0.763694432961E+02   -0.24747E-04   -0.28485E-04  1443   0.677E-02    0.355E-03
RMM:   9    -0.763694476066E+02   -0.43105E-05   -0.88982E-05  1195   0.571E-02
  54 F= -.76369448E+02 E0= -.76369448E+02  d E =-.167634E-01
       N       E                     dE             d eps       ncg     rms          rms(c)
DAV:   1    -0.763708616777E+02   -0.14184E-02   -0.25845E+00  1344   0.783E+00    0.572E-01
RMM:   2    -0.763768925916E+02   -0.60309E-02   -0.71004E-02  1758   0.119E+00    0.149E-01
RMM:   3    -0.763775195659E+02   -0.62697E-03   -0.10554E-02  2175   0.399E-01    0.121E-01
RMM:   4    -0.763776107090E+02   -0.91143E-04   -0.33537E-03  2130   0.183E-01    0.412E-02
RMM:   5    -0.763777298591E+02   -0.11915E-03   -0.13928E-03  2066   0.114E-01    0.187E-02
RMM:   6    -0.763777742186E+02   -0.44359E-04   -0.53324E-04  1788   0.752E-02    0.717E-03
RMM:   7    -0.763777786852E+02   -0.44666E-05   -0.76504E-05  1159   0.543E-02
  55 F= -.76377779E+02 E0= -.76377779E+02  d E =-.833108E-02
       N       E                     dE             d eps       ncg     rms          rms(c)
DAV:   1    -0.763671975699E+02    0.10577E-01   -0.54864E+00  1344   0.114E+01    0.839E-01
RMM:   2    -0.763800910663E+02   -0.12893E-01   -0.15196E-01  1757   0.174E+00    0.217E-01
RMM:   3    -0.763815242427E+02   -0.14332E-02   -0.23111E-02  2190   0.580E-01    0.174E-01
RMM:   4    -0.763817148256E+02   -0.19058E-03   -0.70692E-03  2148   0.265E-01    0.608E-02
RMM:   5    -0.763819569111E+02   -0.24209E-03   -0.28637E-03  2152   0.163E-01    0.275E-02
RMM:   6    -0.763820584571E+02   -0.10155E-03   -0.11984E-03  2069   0.107E-01    0.113E-02
RMM:   7    -0.763820919496E+02   -0.33493E-04   -0.37989E-04  1549   0.711E-02    0.558E-03
RMM:   8    -0.763820981626E+02   -0.62130E-05   -0.10127E-04  1244   0.569E-02
  56 F= -.76382098E+02 E0= -.76382098E+02  d E =-.126506E-01
       N       E                     dE             d eps       ncg     rms          rms(c)
DAV:   1    -0.763837820436E+02   -0.16901E-02   -0.14841E+00  1344   0.598E+00    0.341E-01
RMM:   2    -0.763873851218E+02   -0.36031E-02   -0.41013E-02  1778   0.907E-01    0.110E-01
RMM:   3    -0.763878024903E+02   -0.41737E-03   -0.63939E-03  2206   0.310E-01    0.914E-02
RMM:   4    -0.763878697812E+02   -0.67291E-04   -0.20612E-03  2119   0.142E-01    0.359E-02
RMM:   5    -0.763879459165E+02   -0.76135E-04   -0.87577E-04  2003   0.904E-02    0.142E-02
RMM:   6    -0.763879616715E+02   -0.15755E-04   -0.21172E-04  1281   0.616E-02    0.471E-03
RMM:   7    -0.763879679158E+02   -0.62443E-05   -0.10674E-04  1348   0.536E-02
  57 F= -.76387968E+02 E0= -.76387968E+02  d E =-.586975E-02
       N       E                     dE             d eps       ncg     rms          rms(c)
DAV:   1    -0.763567110713E+02    0.31251E-01   -0.13271E+01  1344   0.179E+01    0.104E+00
RMM:   2    -0.763904467953E+02   -0.33736E-01   -0.38373E-01  1765   0.272E+00    0.335E-01
RMM:   3    -0.763947598765E+02   -0.43131E-02   -0.64980E-02  2204   0.932E-01    0.289E-01
RMM:   4    -0.763952936820E+02   -0.53381E-03   -0.17747E-02  2187   0.431E-01    0.126E-01
RMM:   5    -0.763958227948E+02   -0.52911E-03   -0.66694E-03  2177   0.256E-01    0.443E-02
RMM:   6    -0.763960639147E+02   -0.24112E-03   -0.28663E-03  2181   0.168E-01    0.176E-02
RMM:   7    -0.763961781386E+02   -0.11422E-03   -0.12528E-03  2017   0.109E-01    0.863E-03
RMM:   8    -0.763962208594E+02   -0.42721E-04   -0.46938E-04  1687   0.753E-02    0.464E-03
RMM:   9    -0.763962290895E+02   -0.82301E-05   -0.12176E-04  1220   0.587E-02
  58 F= -.76396229E+02 E0= -.76396229E+02  d E =-.141309E-01
       N       E                     dE             d eps       ncg     rms          rms(c)
DAV:   1    -0.763984569758E+02   -0.22361E-02   -0.35779E-01  1584   0.298E+00    0.240E-01
RMM:   2    -0.763993988053E+02   -0.94183E-03   -0.12023E-02  1773   0.501E-01    0.797E-02
RMM:   3    -0.763994884721E+02   -0.89667E-04   -0.20845E-03  2189   0.181E-01    0.590E-02
RMM:   4    -0.763995122278E+02   -0.23756E-04   -0.79528E-04  2013   0.888E-02    0.185E-02
RMM:   5    -0.763995248459E+02   -0.12618E-04   -0.18023E-04  1223   0.594E-02
  59 F= -.76399525E+02 E0= -.76399525E+02  d E =-.329576E-02
       N       E                     dE             d eps       ncg     rms          rms(c)
DAV:   1    -0.763951121848E+02    0.44000E-02   -0.32192E+00  1344   0.894E+00    0.719E-01
RMM:   2    -0.764033485095E+02   -0.82363E-02   -0.10532E-01  1773   0.149E+00    0.240E-01
RMM:   3    -0.764040839401E+02   -0.73543E-03   -0.17061E-02  2196   0.516E-01    0.185E-01
RMM:   4    -0.764041798190E+02   -0.95879E-04   -0.60053E-03  2147   0.248E-01    0.594E-02
RMM:   5    -0.764043788910E+02   -0.19907E-03   -0.24686E-03  2121   0.154E-01    0.265E-02
RMM:   6    -0.764044762200E+02   -0.97329E-04   -0.11245E-03  2047   0.104E-01    0.101E-02
RMM:   7    -0.764045073280E+02   -0.31108E-04   -0.34583E-04  1523   0.704E-02    0.516E-03
RMM:   8    -0.764045120852E+02   -0.47572E-05   -0.88101E-05  1221   0.575E-02
  60 F= -.76404512E+02 E0= -.76404512E+02  d E =-.828300E-02
       N       E                     dE             d eps       ncg     rms          rms(c)
DAV:   1    -0.764064359599E+02   -0.19286E-02   -0.47485E-01  1360   0.343E+00    0.294E-01
RMM:   2    -0.764075802491E+02   -0.11443E-02   -0.16764E-02  1797   0.589E-01    0.102E-01
RMM:   3    -0.764076942463E+02   -0.11400E-03   -0.29982E-03  2157   0.216E-01    0.698E-02
RMM:   4    -0.764077245989E+02   -0.30353E-04   -0.11836E-03  2069   0.112E-01    0.222E-02
RMM:   5    -0.764077606409E+02   -0.36042E-04   -0.44758E-04  1677   0.736E-02    0.109E-02
RMM:   6    -0.764077652188E+02   -0.45779E-05   -0.86283E-05  1187   0.557E-02
  61 F= -.76407765E+02 E0= -.76407765E+02  d E =-.325313E-02
       N       E                     dE             d eps       ncg     rms          rms(c)
DAV:   1    -0.764042924699E+02    0.34682E-02   -0.25305E+00  1344   0.793E+00    0.687E-01
RMM:   2    -0.764100672086E+02   -0.57747E-02   -0.86131E-02  1788   0.135E+00    0.231E-01
RMM:   3    -0.764105390707E+02   -0.47186E-03   -0.14288E-02  2130   0.471E-01    0.158E-01
RMM:   4    -0.764106170745E+02   -0.78004E-04   -0.54248E-03  2085   0.243E-01    0.507E-02
RMM:   5    -0.764108126781E+02   -0.19560E-03   -0.23820E-03  2176   0.155E-01    0.281E-02
RMM:   6    -0.764109069238E+02   -0.94246E-04   -0.10597E-03  2042   0.101E-01    0.121E-02
RMM:   7    -0.764109349686E+02   -0.28045E-04   -0.32324E-04  1545   0.696E-02    0.482E-03
RMM:   8    -0.764109399044E+02   -0.49359E-05   -0.89843E-05  1233   0.572E-02
  62 F= -.76410940E+02 E0= -.76410940E+02  d E =-.642782E-02
       N       E                     dE             d eps       ncg     rms          rms(c)
DAV:   1    -0.764107102193E+02    0.22475E-03   -0.75329E-01  1344   0.429E+00    0.290E-01
RMM:   2    -0.764129909661E+02   -0.22807E-02   -0.26770E-02  1805   0.738E-01    0.100E-01
RMM:   3    -0.764132781439E+02   -0.28718E-03   -0.45869E-03  2206   0.263E-01    0.850E-02
RMM:   4    -0.764133375961E+02   -0.59452E-04   -0.16705E-03  2055   0.128E-01    0.347E-02
RMM:   5    -0.764134027862E+02   -0.65190E-04   -0.76920E-04  1986   0.867E-02    0.114E-02
RMM:   6    -0.764134173414E+02   -0.14555E-04   -0.19965E-04  1276   0.608E-02
  63 F= -.76413417E+02 E0= -.76413417E+02  d E =-.247744E-02
       N       E                     dE             d eps       ncg     rms          rms(c)
DAV:   1    -0.764047729430E+02    0.86298E-02   -0.31570E+00  1344   0.878E+00    0.599E-01
RMM:   2    -0.764143216148E+02   -0.95487E-02   -0.11177E-01  1786   0.150E+00    0.205E-01
RMM:   3    -0.764152811088E+02   -0.95949E-03   -0.18214E-02  2212   0.525E-01    0.177E-01
RMM:   4    -0.764154682418E+02   -0.18713E-03   -0.63904E-03  2180   0.249E-01    0.729E-02
RMM:   5    -0.764157015746E+02   -0.23333E-03   -0.28441E-03  2097   0.161E-01    0.239E-02
RMM:   6    -0.764158068006E+02   -0.10523E-03   -0.12782E-03  2050   0.109E-01    0.843E-03
RMM:   7    -0.764158513031E+02   -0.44502E-04   -0.49999E-04  1586   0.759E-02    0.575E-03
RMM:   8    -0.764158642434E+02   -0.12940E-04   -0.17111E-04  1346   0.600E-02
  64 F= -.76415864E+02 E0= -.76415864E+02  d E =-.492434E-02
       N       E                     dE             d eps       ncg     rms          rms(c)
DAV:   1    -0.764147315514E+02    0.11198E-02   -0.12281E+00  1360   0.544E+00    0.501E-01
RMM:   2    -0.764185315533E+02   -0.38000E-02   -0.47661E-02  1793   0.963E-01    0.158E-01
RMM:   3    -0.764187413374E+02   -0.20978E-03   -0.73997E-03  2202   0.339E-01    0.121E-01
RMM:   4    -0.764188069539E+02   -0.65617E-04   -0.28599E-03  2099   0.167E-01    0.373E-02
RMM:   5    -0.764189144484E+02   -0.10749E-03   -0.12839E-03  1992   0.109E-01    0.164E-02
RMM:   6    -0.764189592595E+02   -0.44811E-04   -0.52237E-04  1708   0.749E-02    0.644E-03
RMM:   7    -0.764189691960E+02   -0.99365E-05   -0.13497E-04  1288   0.562E-02
  65 F= -.76418969E+02 E0= -.76418969E+02  d E =-.310495E-02
       N       E                     dE             d eps       ncg     rms          rms(c)
DAV:   1    -0.764162460266E+02    0.27132E-02   -0.10301E+00  1360   0.499E+00    0.457E-01
RMM:   2    -0.764194263709E+02   -0.31803E-02   -0.39973E-02  1789   0.883E-01    0.143E-01
RMM:   3    -0.764196245346E+02   -0.19816E-03   -0.62833E-03  2203   0.312E-01    0.110E-01
RMM:   4    -0.764196832628E+02   -0.58728E-04   -0.24203E-03  2078   0.153E-01    0.340E-02
RMM:   5    -0.764197746225E+02   -0.91360E-04   -0.10889E-03  1979   0.101E-01    0.151E-02
RMM:   6    -0.764198081317E+02   -0.33509E-04   -0.39705E-04  1524   0.694E-02    0.559E-03
RMM:   7    -0.764198148150E+02   -0.66833E-05   -0.10603E-04  1289   0.550E-02
  66 F= -.76419815E+02 E0= -.76419815E+02  d E =-.395057E-02
       N       E                     dE             d eps       ncg     rms          rms(c)
DAV:   1    -0.764191269126E+02    0.68122E-03   -0.71746E-01  1376   0.413E+00    0.279E-01
RMM:   2    -0.764215091142E+02   -0.23822E-02   -0.27551E-02  1807   0.727E-01    0.986E-02
RMM:   3    -0.764217086846E+02   -0.19957E-03   -0.43444E-03  2191   0.256E-01    0.840E-02
RMM:   4    -0.764217659739E+02   -0.57289E-04   -0.16419E-03  2068   0.125E-01    0.370E-02
RMM:   5    -0.764218299322E+02   -0.63958E-04   -0.76186E-04  1927   0.847E-02    0.122E-02
RMM:   6    -0.764218448866E+02   -0.14954E-04   -0.20356E-04  1264   0.590E-02    0.354E-03
RMM:   7    -0.764218488590E+02   -0.39724E-05   -0.78814E-05  1202   0.515E-02
  67 F= -.76421849E+02 E0= -.76421849E+02  d E =-.203404E-02
       N       E                     dE             d eps       ncg     rms          rms(c)
DAV:   1    -0.764029169270E+02    0.18928E-01   -0.59647E+00  1344   0.119E+01    0.821E-01
RMM:   2    -0.764225578696E+02   -0.19641E-01   -0.22710E-01  1774   0.208E+00    0.282E-01
RMM:   3    -0.764238047086E+02   -0.12468E-02   -0.34765E-02  2210   0.721E-01    0.248E-01
RMM:   4    -0.764241133879E+02   -0.30868E-03   -0.12180E-02  2184   0.341E-01    0.108E-01
RMM:   5    -0.764245529309E+02   -0.43954E-03   -0.54066E-03  2121   0.218E-01    0.364E-02
RMM:   6    -0.764247529447E+02   -0.20001E-03   -0.24764E-03  2057   0.148E-01    0.102E-02
RMM:   7    -0.764248589497E+02   -0.10600E-03   -0.11663E-03  1922   0.102E-01    0.834E-03
RMM:   8    -0.764249010850E+02   -0.42135E-04   -0.47033E-04  1591   0.723E-02    0.389E-03
RMM:   9    -0.764249145556E+02   -0.13471E-04   -0.17964E-04  1334   0.578E-02
  68 F= -.76424915E+02 E0= -.76424915E+02  d E =-.509974E-02
       N       E                     dE             d eps       ncg     rms          rms(c)
DAV:   1    -0.764250674139E+02   -0.16633E-03   -0.55337E-01  1456   0.359E+00    0.377E-01
RMM:   2    -0.764272451588E+02   -0.21777E-02   -0.24510E-02  1742   0.675E-01    0.881E-02
RMM:   3    -0.764272414398E+02    0.37191E-05   -0.35308E-03  2170   0.236E-01    0.754E-02
RMM:   4    -0.764272807345E+02   -0.39295E-04   -0.14109E-03  2039   0.115E-01    0.280E-02
RMM:   5    -0.764273303861E+02   -0.49652E-04   -0.58877E-04  1723   0.748E-02    0.107E-02
RMM:   6    -0.764273396845E+02   -0.92983E-05   -0.12652E-04  1215   0.538E-02
  69 F= -.76427340E+02 E0= -.76427340E+02  d E =-.242513E-02
       N       E                     dE             d eps       ncg     rms          rms(c)
DAV:   1    -0.764261376520E+02    0.11927E-02   -0.48074E-01  1360   0.335E+00    0.354E-01
RMM:   2    -0.764280226175E+02   -0.18850E-02   -0.21192E-02  1749   0.630E-01    0.834E-02
RMM:   3    -0.764280472636E+02   -0.24646E-04   -0.30984E-03  2170   0.220E-01    0.707E-02
RMM:   4    -0.764280841139E+02   -0.36850E-04   -0.12552E-03  2034   0.109E-01    0.262E-02
RMM:   5    -0.764281243779E+02   -0.40264E-04   -0.48448E-04  1608   0.707E-02    0.101E-02
RMM:   6    -0.764281318190E+02   -0.74410E-05   -0.10935E-04  1236   0.528E-02
  70 F= -.76428132E+02 E0= -.76428132E+02  d E =-.321726E-02
       N       E                     dE             d eps       ncg     rms          rms(c)
DAV:   1    -0.764284095520E+02   -0.28517E-03   -0.49986E-01  1360   0.345E+00    0.224E-01
RMM:   2    -0.764299698824E+02   -0.15603E-02   -0.18095E-02  1781   0.593E-01    0.759E-02
RMM:   3    -0.764301175722E+02   -0.14769E-03   -0.29191E-03  2199   0.211E-01    0.688E-02
RMM:   4    -0.764301533925E+02   -0.35820E-04   -0.10643E-03  2026   0.100E-01    0.283E-02
RMM:   5    -0.764301854882E+02   -0.32096E-04   -0.39017E-04  1535   0.676E-02    0.104E-02
RMM:   6    -0.764301909711E+02   -0.54829E-05   -0.11087E-04  1301   0.533E-02
  71 F= -.76430191E+02 E0= -.76430191E+02  d E =-.205915E-02
       N       E                     dE             d eps       ncg     rms          rms(c)
DAV:   1    -0.764176292650E+02    0.12556E-01   -0.44988E+00  1344   0.103E+01    0.683E-01
RMM:   2    -0.764312445151E+02   -0.13615E-01   -0.15866E-01  1771   0.176E+00    0.228E-01
RMM:   3    -0.764325256195E+02   -0.12811E-02   -0.24470E-02  2223   0.607E-01    0.212E-01
RMM:   4    -0.764327042813E+02   -0.17866E-03   -0.81718E-03  2198   0.281E-01    0.878E-02
RMM:   5    -0.764329956492E+02   -0.29137E-03   -0.35070E-03  2129   0.180E-01    0.349E-02
RMM:   6    -0.764331138509E+02   -0.11820E-03   -0.16005E-03  2081   0.123E-01    0.104E-02
RMM:   7    -0.764331799539E+02   -0.66103E-04   -0.73204E-04  1838   0.854E-02    0.707E-03
RMM:   8    -0.764331994520E+02   -0.19498E-04   -0.23255E-04  1403   0.630E-02    0.294E-03
RMM:   9    -0.764332038011E+02   -0.43492E-05   -0.82805E-05  1177   0.548E-02
  72 F= -.76433204E+02 E0= -.76433204E+02  d E =-.507198E-02
       N       E                     dE             d eps       ncg     rms          rms(c)
DAV:   1    -0.764328709892E+02    0.32846E-03   -0.54002E-01  1360   0.357E+00    0.339E-01
RMM:   2    -0.764349003920E+02   -0.20294E-02   -0.22649E-02  1790   0.657E-01    0.863E-02
RMM:   3    -0.764350177613E+02   -0.11737E-03   -0.33761E-03  2183   0.229E-01    0.749E-02
RMM:   4    -0.764350589993E+02   -0.41238E-04   -0.12504E-03  2033   0.110E-01    0.331E-02
RMM:   5    -0.764351035959E+02   -0.44597E-04   -0.54029E-04  1736   0.749E-02    0.103E-02
RMM:   6    -0.764351121160E+02   -0.85200E-05   -0.12291E-04  1219   0.547E-02
  73 F= -.76435112E+02 E0= -.76435112E+02  d E =-.190831E-02
       N       E                     dE             d eps       ncg     rms          rms(c)
DAV:   1    -0.764342078995E+02    0.89570E-03   -0.33271E-01  1408   0.280E+00    0.267E-01
RMM:   2    -0.764354711356E+02   -0.12632E-02   -0.14076E-02  1794   0.519E-01    0.681E-02
RMM:   3    -0.764355636193E+02   -0.92484E-04   -0.21890E-03  2179   0.184E-01    0.587E-02
RMM:   4    -0.764355951569E+02   -0.31538E-04   -0.83208E-04  1959   0.901E-02    0.262E-02
RMM:   5    -0.764356143018E+02   -0.19145E-04   -0.25155E-04  1325   0.617E-02    0.765E-03
RMM:   6    -0.764356192253E+02   -0.49235E-05   -0.88440E-05  1245   0.515E-02
  74 F= -.76435619E+02 E0= -.76435619E+02  d E =-.241542E-02
       N       E                     dE             d eps       ncg     rms          rms(c)
DAV:   1    -0.764357661803E+02   -0.15188E-03   -0.42699E-01  1344   0.318E+00    0.255E-01
RMM:   2    -0.764370776894E+02   -0.13115E-02   -0.16904E-02  1801   0.570E-01    0.865E-02
RMM:   3    -0.764371763561E+02   -0.98667E-04   -0.27126E-03  2180   0.202E-01    0.723E-02
RMM:   4    -0.764371964127E+02   -0.20057E-04   -0.10224E-03  2001   0.999E-02    0.271E-02
RMM:   5    -0.764372261678E+02   -0.29755E-04   -0.38922E-04  1651   0.677E-02    0.880E-03
RMM:   6    -0.764372318258E+02   -0.56580E-05   -0.10502E-04  1211   0.514E-02
  75 F= -.76437232E+02 E0= -.76437232E+02  d E =-.161260E-02
       N       E                     dE             d eps       ncg     rms          rms(c)
DAV:   1    -0.764327571950E+02    0.44690E-02   -0.18893E+00  1344   0.669E+00    0.540E-01
RMM:   2    -0.764383242696E+02   -0.55671E-02   -0.72065E-02  1788   0.119E+00    0.182E-01
RMM:   3    -0.764387184971E+02   -0.39423E-03   -0.11125E-02  2199   0.408E-01    0.156E-01
RMM:   4    -0.764387457361E+02   -0.27239E-04   -0.39809E-03  2106   0.194E-01    0.571E-02
RMM:   5    -0.764388820838E+02   -0.13635E-03   -0.17547E-03  2083   0.128E-01    0.200E-02
RMM:   6    -0.764389439048E+02   -0.61821E-04   -0.81130E-04  1955   0.873E-02    0.601E-03
RMM:   7    -0.764389632239E+02   -0.19319E-04   -0.23960E-04  1306   0.616E-02    0.435E-03
RMM:   8    -0.764389671455E+02   -0.39216E-05   -0.79327E-05  1179   0.531E-02
  76 F= -.76438967E+02 E0= -.76438967E+02  d E =-.334792E-02
       N       E                     dE             d eps       ncg     rms          rms(c)
DAV:   1    -0.764392295099E+02   -0.26629E-03   -0.21326E-01  1520   0.218E+00    0.249E-01
RMM:   2    -0.764401166252E+02   -0.88712E-03   -0.10092E-02  1751   0.435E-01    0.634E-02
RMM:   3    -0.764401503828E+02   -0.33758E-04   -0.15659E-03  2142   0.153E-01    0.589E-02
RMM:   4    -0.764401682929E+02   -0.17910E-04   -0.59111E-04  1893   0.750E-02    0.254E-02
RMM:   5    -0.764401723099E+02   -0.40170E-05   -0.89038E-05  1052   0.514E-02
  77 F= -.76440172E+02 E0= -.76440172E+02  d E =-.120516E-02
       N       E                     dE             d eps       ncg     rms          rms(c)
DAV:   1    -0.764384357428E+02    0.17326E-02   -0.53144E-01  1344   0.344E+00    0.396E-01
RMM:   2    -0.764406625178E+02   -0.22268E-02   -0.25366E-02  1714   0.682E-01    0.979E-02
RMM:   3    -0.764406576845E+02    0.48332E-05   -0.36526E-03  2158   0.234E-01    0.914E-02
RMM:   4    -0.764406885436E+02   -0.30859E-04   -0.13063E-03  2032   0.107E-01    0.406E-02
RMM:   5    -0.764407328116E+02   -0.44268E-04   -0.56409E-04  1686   0.719E-02    0.123E-02
RMM:   6    -0.764407413024E+02   -0.84908E-05   -0.12284E-04  1185   0.512E-02
  78 F= -.76440741E+02 E0= -.76440741E+02  d E =-.177416E-02
       N       E                     dE             d eps       ncg     rms          rms(c)
DAV:   1    -0.764409441569E+02   -0.21135E-03   -0.82929E-02  1568   0.136E+00    0.111E-01
RMM:   2    -0.764412774340E+02   -0.33328E-03   -0.39181E-03  1784   0.262E-01    0.383E-02
RMM:   3    -0.764412953104E+02   -0.17876E-04   -0.67610E-04  2116   0.987E-02    0.335E-02
RMM:   4    -0.764412960770E+02   -0.76662E-06   -0.13340E-04  1218   0.509E-02
  79 F= -.76441296E+02 E0= -.76441296E+02  d E =-.554775E-03
       N       E                     dE             d eps       ncg     rms          rms(c)
DAV:   1    -0.764395930914E+02    0.17022E-02   -0.73953E-01  1344   0.407E+00    0.327E-01
RMM:   2    -0.764422088628E+02   -0.26158E-02   -0.31694E-02  1742   0.758E-01    0.110E-01
RMM:   3    -0.764423174772E+02   -0.10861E-03   -0.48993E-03  2198   0.266E-01    0.101E-01
RMM:   4    -0.764423633741E+02   -0.45897E-04   -0.15928E-03  2064   0.121E-01    0.502E-02
RMM:   5    -0.764424215065E+02   -0.58132E-04   -0.74871E-04  1863   0.815E-02    0.154E-02
RMM:   6    -0.764424383840E+02   -0.16878E-04   -0.23432E-04  1319   0.566E-02    0.550E-03
RMM:   7    -0.764424429129E+02   -0.45288E-05   -0.80373E-05  1192   0.473E-02
  80 F= -.76442443E+02 E0= -.76442443E+02  d E =-.170161E-02
       N       E                     dE             d eps       ncg     rms          rms(c)
DAV:   1    -0.764311084262E+02    0.11330E-01   -0.29736E+00  1344   0.816E+00    0.659E-01
RMM:   2    -0.764415720080E+02   -0.10464E-01   -0.12549E-01  1728   0.152E+00    0.224E-01
RMM:   3    -0.764419676618E+02   -0.39565E-03   -0.19253E-02  2201   0.526E-01    0.210E-01
RMM:   4    -0.764420821202E+02   -0.11446E-03   -0.60065E-03  2185   0.237E-01    0.103E-01
RMM:   5    -0.764422848687E+02   -0.20275E-03   -0.27443E-03  2058   0.154E-01    0.309E-02
RMM:   6    -0.764423847208E+02   -0.99852E-04   -0.12645E-03  1927   0.103E-01    0.137E-02
RMM:   7    -0.764424316891E+02   -0.46968E-04   -0.53332E-04  1549   0.719E-02    0.672E-03
RMM:   8    -0.764424460275E+02   -0.14338E-04   -0.17987E-04  1283   0.552E-02
  81 F= -.76442446E+02 E0= -.76442446E+02  d E =-.170473E-02
       N       E                     dE             d eps       ncg     rms          rms(c)
DAV:   1    -0.764399135977E+02    0.25181E-02   -0.89320E-01  1344   0.447E+00    0.372E-01
RMM:   2    -0.764428643392E+02   -0.29507E-02   -0.35997E-02  1692   0.814E-01    0.118E-01
RMM:   3    -0.764428007617E+02    0.63578E-04   -0.44666E-03  2136   0.260E-01    0.113E-01
RMM:   4    -0.764427839883E+02    0.16773E-04   -0.12185E-03  1993   0.107E-01    0.540E-02
RMM:   5    -0.764428224245E+02   -0.38436E-04   -0.55649E-04  1817   0.711E-02    0.165E-02
RMM:   6    -0.764428284348E+02   -0.60103E-05   -0.13958E-04  1181   0.479E-02
  82 F= -.76442828E+02 E0= -.76442828E+02  d E =-.208713E-02
       N       E                     dE             d eps       ncg     rms          rms(c)
DAV:   1    -0.764435824818E+02   -0.76006E-03   -0.19030E-01  1344   0.203E+00    0.230E-01
RMM:   2    -0.764442785685E+02   -0.69609E-03   -0.84509E-03  1679   0.402E-01    0.698E-02
RMM:   3    -0.764442611660E+02    0.17402E-04   -0.91237E-04  2051   0.120E-01    0.652E-02
RMM:   4    -0.764442511936E+02    0.99725E-05   -0.24969E-04  1671   0.493E-02    0.306E-02
RMM:   5    -0.764442447731E+02    0.64205E-05    0.18255E-05   822   0.347E-02
  83 F= -.76444245E+02 E0= -.76444245E+02  d E =-.141634E-02
       N       E                     dE             d eps       ncg     rms          rms(c)
DAV:   1    -0.764407018002E+02    0.35494E-02   -0.10238E+00  1344   0.471E+00    0.533E-01
RMM:   2    -0.764447932371E+02   -0.40914E-02   -0.48715E-02  1692   0.957E-01    0.162E-01
RMM:   3    -0.764449082490E+02   -0.11501E-03   -0.71144E-03  2177   0.319E-01    0.152E-01
RMM:   4    -0.764449441524E+02   -0.35903E-04   -0.23697E-03  2069   0.144E-01    0.735E-02
RMM:   5    -0.764450236450E+02   -0.79493E-04   -0.10960E-03  2005   0.961E-02    0.171E-02
RMM:   6    -0.764450590551E+02   -0.35410E-04   -0.42653E-04  1463   0.642E-02    0.585E-03
RMM:   7    -0.764450684620E+02   -0.94070E-05   -0.12937E-04  1236   0.508E-02
  84 F= -.76445068E+02 E0= -.76445068E+02  d E =-.224003E-02
       N       E                     dE             d eps       ncg     rms          rms(c)
DAV:   1    -0.764463674913E+02   -0.13084E-02   -0.10370E-01  1424   0.140E+00    0.384E-01
RMM:   2    -0.764465176701E+02   -0.15018E-03   -0.80719E-03  1676   0.361E-01    0.117E-01
RMM:   3    -0.764463332758E+02    0.18439E-03   -0.99550E-04  1984   0.119E-01    0.660E-02
RMM:   4    -0.764463118467E+02    0.21429E-04   -0.35321E-04  1743   0.607E-02    0.245E-02
RMM:   5    -0.764463038766E+02    0.79701E-05    0.17317E-05   824   0.375E-02
  85 F= -.76446304E+02 E0= -.76446304E+02  d E =-.123541E-02
       N       E                     dE             d eps       ncg     rms          rms(c)
DAV:   1    -0.764463278051E+02   -0.15958E-04   -0.33415E-04  1888   0.525E-02    0.153E-02
RMM:   2    -0.764463279964E+02   -0.19128E-06   -0.18780E-05   784   0.171E-02
  86 F= -.76446328E+02 E0= -.76446328E+02  d E =-.125953E-02
       N       E                     dE             d eps       ncg     rms          rms(c)
DAV:   1    -0.764465786053E+02   -0.25080E-03   -0.31296E-02  1432   0.853E-01    0.884E-02
RMM:   2    -0.764466642463E+02   -0.85641E-04   -0.12631E-03  1700   0.158E-01    0.277E-02
RMM:   3    -0.764466477528E+02    0.16494E-04   -0.91420E-05  1384   0.517E-02
  87 F= -.76446648E+02 E0= -.76446648E+02  d E =-.319756E-03
       N       E                     dE             d eps       ncg     rms          rms(c)
DAV:   1    -0.764464416529E+02    0.22259E-03   -0.21413E-01  1344   0.223E+00    0.226E-01
RMM:   2    -0.764470308276E+02   -0.58917E-03   -0.86669E-03  1714   0.416E-01    0.740E-02
RMM:   3    -0.764469973307E+02    0.33497E-04   -0.12935E-03  2075   0.142E-01    0.618E-02
RMM:   4    -0.764469954335E+02    0.18971E-05   -0.53548E-04  1897   0.720E-02    0.223E-02
RMM:   5    -0.764469934019E+02    0.20317E-05   -0.36212E-05   947   0.480E-02
  88 F= -.76446993E+02 E0= -.76446993E+02  d E =-.665405E-03
       N       E                     dE             d eps       ncg     rms          rms(c)
DAV:   1    -0.764471262120E+02   -0.13078E-03   -0.36159E-02  1360   0.933E-01    0.708E-02
RMM:   2    -0.764472651293E+02   -0.13892E-03   -0.16098E-03  1796   0.172E-01    0.226E-02
RMM:   3    -0.764472722793E+02   -0.71499E-05   -0.25566E-04  1574   0.686E-02    0.192E-02
RMM:   4    -0.764472702452E+02    0.20340E-05   -0.63768E-05  1127   0.462E-02
  89 F= -.76447270E+02 E0= -.76447270E+02  d E =-.276843E-03
       N       E                     dE             d eps       ncg     rms          rms(c)
DAV:   1    -0.764466366589E+02    0.63562E-03   -0.32605E-01  1344   0.280E+00    0.213E-01
RMM:   2    -0.764476330110E+02   -0.99635E-03   -0.12112E-02  1758   0.489E-01    0.676E-02
RMM:   3    -0.764476965792E+02   -0.63568E-04   -0.19643E-03  2146   0.172E-01    0.581E-02
RMM:   4    -0.764477156624E+02   -0.19083E-04   -0.73896E-04  1960   0.838E-02    0.226E-02
RMM:   5    -0.764477277496E+02   -0.12087E-04   -0.18017E-04  1214   0.562E-02
  90 F= -.76447728E+02 E0= -.76447728E+02  d E =-.734348E-03
       N       E                     dE             d eps       ncg     rms          rms(c)
DAV:   1    -0.764479544737E+02   -0.23881E-03   -0.30536E-02  1464   0.782E-01    0.167E-01
RMM:   2    -0.764481040018E+02   -0.14953E-03   -0.20052E-03  1691   0.186E-01    0.314E-02
RMM:   3    -0.764480861683E+02    0.17833E-04   -0.26165E-04  1884   0.640E-02    0.261E-02
RMM:   4    -0.764480736638E+02    0.12505E-04    0.20218E-05   829   0.367E-02
  91 F= -.76448074E+02 E0= -.76448074E+02  d E =-.345914E-03
       N       E                     dE             d eps       ncg     rms          rms(c)
DAV:   1    -0.764479293627E+02    0.15681E-03   -0.20906E-02  1408   0.660E-01    0.134E-01
RMM:   2    -0.764480398480E+02   -0.11049E-03   -0.14047E-03  1686   0.155E-01    0.258E-02
RMM:   3    -0.764480323688E+02    0.74792E-05   -0.14787E-04  1525   0.547E-02
  92 F= -.76448032E+02 E0= -.76448032E+02  d E =-.304619E-03
       N       E                     dE             d eps       ncg     rms          rms(c)
DAV:   1    -0.764483012474E+02   -0.26140E-03   -0.20786E-02  1360   0.612E-01    0.200E-01
RMM:   2    -0.764484145892E+02   -0.11334E-03   -0.18076E-03  1670   0.167E-01    0.391E-02
RMM:   3    -0.764483865386E+02    0.28051E-04   -0.15643E-04  1603   0.520E-02    0.258E-02
RMM:   4    -0.764483770569E+02    0.94817E-05   -0.32387E-05  1124   0.329E-02
  93 F= -.76448377E+02 E0= -.76448377E+02  d E =-.344688E-03
       N       E                     dE             d eps       ncg     rms          rms(c)
DAV:   1    -0.764483782607E+02    0.82779E-05   -0.77786E-04  1688   0.119E-01    0.378E-02
RMM:   2    -0.764483858295E+02   -0.75688E-05   -0.97921E-05  1177   0.373E-02
  94 F= -.76448386E+02 E0= -.76448386E+02  d E =-.353461E-03
