<?xml version="1.0" encoding="ISO-8859-1"?>
<modeling>
 <generator>
  <i name="program" type="string">vasp </i>
  <i name="version" type="string">5.4.4.18Apr17-6-g9f103f2a35  </i>
  <i name="subversion" type="string">(build Feb 14 2024 16:55:51) complex            parallel </i>
  <i name="platform" type="string">LinuxGNU </i>
  <i name="date" type="string">2024 06 06 </i>
  <i name="time" type="string">06:21:21 </i>
 </generator>
 <incar>
  <i type="int" name="ISTART">     0</i>
  <i type="string" name="PREC">accurate</i>
  <i type="string" name="ALGO"> FAST</i>
  <i type="int" name="ICHARG">     2</i>
  <i type="int" name="INIWAV">     1</i>
  <i type="int" name="NELM">   100</i>
  <i type="int" name="IBRION">     2</i>
  <i name="EDIFF">      0.00002000</i>
  <i name="EDIFFG">      0.00020000</i>
  <i type="int" name="NSW">   300</i>
  <i type="int" name="ISIF">     3</i>
  <i name="SYMPREC">      0.00050000</i>
  <i name="ENCUT">    420.00000000</i>
  <i type="string" name="LREAL"> AUTO</i>
  <i type="int" name="ISMEAR">    -5</i>
  <i type="logical" name="LWAVE"> F  </i>
  <i type="logical" name="LCHARG"> F  </i>
  <v type="int" name="KPOINT_BSE">    -1     0     0     0</v>
  <i type="int" name="NELM">   100</i>
 </incar>
 <structure name="primitive_cell" >
  <crystal>
   <varray name="basis" >
    <v>       5.04309795       2.90228046       0.01211590 </v>
    <v>       0.00000000       5.72399694       1.71274988 </v>
    <v>       0.00000000       0.00000000       9.96239457 </v>
   </varray>
   <i name="volume">    287.58122830 </i>
   <varray name="rec_basis" >
    <v>       0.19829081       0.00000000       0.00000000 </v>
    <v>      -0.10054086       0.17470310       0.00000000 </v>
    <v>       0.01704398      -0.03003522       0.10037747 </v>
   </varray>
  </crystal>
  <varray name="positions" >
   <v>       0.14615230      -0.40525375      -0.22223225 </v>
   <v>      -0.14246386      -0.00370971      -0.32694029 </v>
   <v>      -0.24504866       0.43675805      -0.17572155 </v>
   <v>       0.14248667       0.35757005      -0.44270386 </v>
   <v>      -0.42359790       0.04254476      -0.39740241 </v>
   <v>      -0.00937597      -0.12015368       0.02420626 </v>
   <v>      -0.30696665      -0.48246411      -0.04336749 </v>
   <v>      -0.18348556       0.36629603      -0.36399143 </v>
   <v>       0.35677716      -0.03737355       0.00648438 </v>
   <v>       0.48337811      -0.33724147       0.49475118 </v>
   <v>       0.15656981       0.44718211       0.14679364 </v>
   <v>       0.19301277      -0.23506488       0.39346423 </v>
   <v>       0.46846869       0.09273291       0.14956120 </v>
   <v>      -0.21965528       0.15378502       0.09464376 </v>
   <v>      -0.41893741      -0.19705027       0.34245952 </v>
   <v>      -0.13076100       0.43371081       0.25529134 </v>
  </varray>
 </structure>
 <varray name="primitive_index" >
  <v type="int" >        1 </v>
  <v type="int" >       13 </v>
  <v type="int" >       14 </v>
  <v type="int" >       16 </v>
  <v type="int" >        5 </v>
  <v type="int" >        3 </v>
  <v type="int" >        4 </v>
  <v type="int" >        8 </v>
  <v type="int" >       10 </v>
  <v type="int" >       15 </v>
  <v type="int" >       11 </v>
  <v type="int" >        2 </v>
  <v type="int" >        7 </v>
  <v type="int" >       12 </v>
  <v type="int" >        9 </v>
  <v type="int" >        6 </v>
 </varray>
 <kpoints>
  <generation param="Gamma">
   <v type="int" name="divisions">       3        3        3 </v>
   <v name="usershift">      0.00000000       0.00000000       0.00000000 </v>
   <v name="genvec1">      0.33333333       0.00000000       0.00000000 </v>
   <v name="genvec2">      0.00000000       0.33333333       0.00000000 </v>
   <v name="genvec3">      0.00000000       0.00000000       0.33333333 </v>
   <v name="shift">      0.00000000       0.00000000       0.00000000 </v>
  </generation>
  <varray name="kpointlist" >
   <v>       0.00000000       0.00000000       0.00000000 </v>
   <v>       0.33333333       0.00000000       0.00000000 </v>
   <v>       0.00000000       0.33333333       0.00000000 </v>
   <v>       0.33333333       0.33333333       0.00000000 </v>
   <v>      -0.33333333       0.33333333       0.00000000 </v>
   <v>       0.00000000       0.00000000       0.33333333 </v>
   <v>       0.33333333       0.00000000       0.33333333 </v>
   <v>      -0.33333333       0.00000000       0.33333333 </v>
   <v>       0.00000000       0.33333333       0.33333333 </v>
   <v>       0.33333333       0.33333333       0.33333333 </v>
   <v>      -0.33333333       0.33333333       0.33333333 </v>
   <v>       0.00000000      -0.33333333       0.33333333 </v>
   <v>       0.33333333      -0.33333333       0.33333333 </v>
   <v>      -0.33333333      -0.33333333       0.33333333 </v>
  </varray>
  <varray name="weights" >
   <v>       0.03703704 </v>
   <v>       0.07407407 </v>
   <v>       0.07407407 </v>
   <v>       0.07407407 </v>
   <v>       0.07407407 </v>
   <v>       0.07407407 </v>
   <v>       0.07407407 </v>
   <v>       0.07407407 </v>
   <v>       0.07407407 </v>
   <v>       0.07407407 </v>
   <v>       0.07407407 </v>
   <v>       0.07407407 </v>
   <v>       0.07407407 </v>
   <v>       0.07407407 </v>
  </varray>
  <varray name="tetrahedronlist"  type="int" >
   <v type="int" >        2        1        3        4       10 </v>
   <v type="int" >        2        1        2        4       10 </v>
   <v type="int" >        2        1        2        7       10 </v>
   <v type="int" >        2        1        3        9       10 </v>
   <v type="int" >        2        1        6        9       10 </v>
   <v type="int" >        2        1        6        7       10 </v>
   <v type="int" >        2        2        4        5       11 </v>
   <v type="int" >        2        2        2        5       11 </v>
   <v type="int" >        2        2        2        8       11 </v>
   <v type="int" >        2        2        4       10       11 </v>
   <v type="int" >        2        2        7       10       11 </v>
   <v type="int" >        2        2        7        8       11 </v>
   <v type="int" >        2        2        3        5        9 </v>
   <v type="int" >        2        1        2        3        9 </v>
   <v type="int" >        2        1        2        6        9 </v>
   <v type="int" >        2        2        5        9       11 </v>
   <v type="int" >        2        2        8        9       11 </v>
   <v type="int" >        2        2        6        8        9 </v>
   <v type="int" >        2        3        3        5       13 </v>
   <v type="int" >        2        3        4        5       13 </v>
   <v type="int" >        2        3        4       10       13 </v>
   <v type="int" >        2        3        3       12       13 </v>
   <v type="int" >        2        3        9       12       13 </v>
   <v type="int" >        2        3        9       10       13 </v>
   <v type="int" >        4        4        4        5       14 </v>
   <v type="int" >        2        4        5       11       14 </v>
   <v type="int" >        2        4        5       13       14 </v>
   <v type="int" >        2        4       10       13       14 </v>
   <v type="int" >        2        4       10       11       14 </v>
   <v type="int" >        2        3        4        5       12 </v>
   <v type="int" >        2        3        3        5       12 </v>
   <v type="int" >        2        3        5        9       12 </v>
   <v type="int" >        2        4        5       12       14 </v>
   <v type="int" >        2        5       11       12       14 </v>
   <v type="int" >        2        5        9       11       12 </v>
   <v type="int" >        2        1        2        3        7 </v>
   <v type="int" >        2        2        3        5        7 </v>
   <v type="int" >        2        3        5        7       13 </v>
   <v type="int" >        2        1        3        6        7 </v>
   <v type="int" >        2        3        6        7       12 </v>
   <v type="int" >        2        3        7       12       13 </v>
   <v type="int" >        2        2        2        5        8 </v>
   <v type="int" >        2        2        4        5        8 </v>
   <v type="int" >        2        4        5        8       14 </v>
   <v type="int" >        2        2        5        7        8 </v>
   <v type="int" >        2        5        7        8       13 </v>
   <v type="int" >        2        5        8       13       14 </v>
   <v type="int" >        2        1        2        4        6 </v>
   <v type="int" >        2        1        3        4        6 </v>
   <v type="int" >        2        3        4        6       12 </v>
   <v type="int" >        2        2        4        6        8 </v>
   <v type="int" >        2        4        6        8       14 </v>
   <v type="int" >        2        4        6       12       14 </v>
   <v type="int" >        2        6        9       10       14 </v>
   <v type="int" >        2        6        7       10       14 </v>
   <v type="int" >        2        6        7        8       14 </v>
   <v type="int" >        2        6        9       12       14 </v>
   <v type="int" >        2        6        6       12       14 </v>
   <v type="int" >        2        6        6        8       14 </v>
   <v type="int" >        2        7       10       11       13 </v>
   <v type="int" >        2        7        8       11       13 </v>
   <v type="int" >        4        7        7        8       13 </v>
   <v type="int" >        2        7       10       13       14 </v>
   <v type="int" >        2        7        8       13       14 </v>
   <v type="int" >        2        8        9       11       12 </v>
   <v type="int" >        2        6        8        9       12 </v>
   <v type="int" >        2        6        6        8       12 </v>
   <v type="int" >        2        8       11       12       13 </v>
   <v type="int" >        2        7        8       12       13 </v>
   <v type="int" >        2        6        7        8       12 </v>
   <v type="int" >        2        9       11       12       13 </v>
   <v type="int" >        2        9       10       11       13 </v>
   <v type="int" >        2        9       10       11       14 </v>
   <v type="int" >        4        9        9       11       12 </v>
   <v type="int" >        2        9       11       12       14 </v>
   <v type="int" >        2       10       10       13       14 </v>
   <v type="int" >        2       10       10       11       14 </v>
   <v type="int" >        2       10       10       11       13 </v>
  </varray>
  <i name="volumeweight">      0.00617284 </i>
 </kpoints>
 <parameters>
  <separator name="general" >
   <i type="string" name="SYSTEM">unknown system</i>
   <i type="logical" name="LCOMPAT"> F  </i>
  </separator>
  <separator name="electronic" >
   <i type="string" name="PREC">accura</i>
   <i name="ENMAX">    420.00000000</i>
   <i name="ENAUG">    628.94500000</i>
   <i name="EDIFF">      0.00002000</i>
   <i type="int" name="IALGO">    68</i>
   <i type="int" name="IWAVPR">    11</i>
   <i type="int" name="NBANDS">    48</i>
   <i name="NELECT">     76.00000000</i>
   <i type="int" name="TURBO">     0</i>
   <i type="int" name="IRESTART">     0</i>
   <i type="int" name="NREBOOT">     0</i>
   <i type="int" name="NMIN">     0</i>
   <i name="EREF">      0.00000000</i>
   <separator name="electronic smearing" >
    <i type="int" name="ISMEAR">    -5</i>
    <i name="SIGMA">      0.20000000</i>
    <i name="KSPACING">      0.50000000</i>
    <i type="logical" name="KGAMMA"> T  </i>
   </separator>
   <separator name="electronic projectors" >
    <i type="logical" name="LREAL"> T  </i>
    <v name="ROPT">     -0.00025000     -0.00025000     -0.00025000</v>
    <i type="int" name="LMAXPAW">  -100</i>
    <i type="int" name="LMAXMIX">     2</i>
    <i type="logical" name="NLSPLINE"> F  </i>
   </separator>
   <separator name="electronic startup" >
    <i type="int" name="ISTART">     0</i>
    <i type="int" name="ICHARG">     2</i>
    <i type="int" name="INIWAV">     1</i>
   </separator>
   <separator name="electronic spin" >
    <i type="int" name="ISPIN">     1</i>
    <i type="logical" name="LNONCOLLINEAR"> F  </i>
    <v name="MAGMOM">      1.00000000      1.00000000      1.00000000      1.00000000      1.00000000      1.00000000      1.00000000      1.00000000      1.00000000      1.00000000      1.00000000      1.00000000      1.00000000      1.00000000      1.00000000      1.00000000</v>
    <i name="NUPDOWN">     -1.00000000</i>
    <i type="logical" name="LSORBIT"> F  </i>
    <v name="SAXIS">      0.00000000      0.00000000      1.00000000</v>
    <i type="logical" name="LSPIRAL"> F  </i>
    <v name="QSPIRAL">      0.00000000      0.00000000      0.00000000</v>
    <i type="logical" name="LZEROZ"> F  </i>
   </separator>
   <separator name="electronic exchange-correlation" >
    <i type="logical" name="LASPH"> F  </i>
    <i type="logical" name="LMETAGGA"> F  </i>
   </separator>
   <separator name="electronic convergence" >
    <i type="int" name="NELM">   100</i>
    <i type="int" name="NELMDL">    -5</i>
    <i type="int" name="NELMIN">     2</i>
    <i name="ENINI">    420.00000000</i>
    <separator name="electronic convergence detail" >
     <i type="logical" name="LDIAG"> T  </i>
     <i type="logical" name="LSUBROT"> F  </i>
     <i name="WEIMIN">      0.00100000</i>
     <i name="EBREAK">      0.00000010</i>
     <i name="DEPER">      0.30000000</i>
     <i type="int" name="NRMM">     4</i>
     <i name="TIME">      0.40000000</i>
    </separator>
   </separator>
   <separator name="electronic mixer" >
    <i name="AMIX">      0.40000000</i>
    <i name="BMIX">      1.00000000</i>
    <i name="AMIN">      0.10000000</i>
    <i name="AMIX_MAG">      1.60000000</i>
    <i name="BMIX_MAG">      1.00000000</i>
    <separator name="electronic mixer details" >
     <i type="int" name="IMIX">     4</i>
     <i type="logical" name="MIXFIRST"> F  </i>
     <i type="int" name="MAXMIX">   -45</i>
     <i name="WC">    100.00000000</i>
     <i type="int" name="INIMIX">     1</i>
     <i type="int" name="MIXPRE">     1</i>
     <i type="int" name="MREMOVE">     5</i>
    </separator>
   </separator>
   <separator name="electronic dipolcorrection" >
    <i type="logical" name="LDIPOL"> F  </i>
    <i type="logical" name="LMONO"> F  </i>
    <i type="int" name="IDIPOL">     0</i>
    <i name="EPSILON">      1.00000000</i>
    <v name="DIPOL">   -100.00000000   -100.00000000   -100.00000000</v>
    <i name="EFIELD">      0.00000000</i>
   </separator>
  </separator>
  <separator name="grids" >
   <i type="int" name="NGX">    40</i>
   <i type="int" name="NGY">    40</i>
   <i type="int" name="NGZ">    70</i>
   <i type="int" name="NGXF">    80</i>
   <i type="int" name="NGYF">    80</i>
   <i type="int" name="NGZF">   140</i>
   <i type="logical" name="ADDGRID"> F  </i>
  </separator>
  <separator name="ionic" >
   <i type="int" name="NSW">   300</i>
   <i type="int" name="IBRION">     2</i>
   <i type="int" name="MDALGO">     0</i>
   <i type="int" name="ISIF">     3</i>
   <i name="PSTRESS">      0.00000000</i>
   <i name="EDIFFG">      0.00020000</i>
   <i type="int" name="NFREE">     1</i>
   <i name="POTIM">      0.50000000</i>
   <i name="SMASS">     -3.00000000</i>
   <i name="SCALEE">      1.00000000</i>
  </separator>
  <separator name="ionic md" >
   <i name="TEBEG">      0.00010000</i>
   <i name="TEEND">      0.00010000</i>
   <i type="int" name="NBLOCK">     1</i>
   <i type="int" name="KBLOCK">   300</i>
   <i type="int" name="NPACO">   256</i>
   <i name="APACO">     16.00000000</i>
  </separator>
  <separator name="symmetry" >
   <i type="int" name="ISYM">     2</i>
   <i name="SYMPREC">      0.00050000</i>
  </separator>
  <separator name="dos" >
   <i type="int" name="LORBIT">     0</i>
   <v name="RWIGS">     -1.00000000     -1.00000000     -1.00000000</v>
   <i type="int" name="NEDOS">   301</i>
   <i name="EMIN">     10.00000000</i>
   <i name="EMAX">    -10.00000000</i>
   <i name="EFERMI">      0.00000000</i>
  </separator>
  <separator name="writing" >
   <i type="int" name="NWRITE">     2</i>
   <i type="logical" name="LWAVE"> F  </i>
   <i type="logical" name="LDOWNSAMPLE"> F  </i>
   <i type="logical" name="LCHARG"> F  </i>
   <i type="logical" name="LPARD"> F  </i>
   <i type="logical" name="LVTOT"> F  </i>
   <i type="logical" name="LVHAR"> F  </i>
   <i type="logical" name="LELF"> F  </i>
   <i type="logical" name="LOPTICS"> F  </i>
   <v name="STM">      0.00000000      0.00000000      0.00000000      0.00000000      0.00000000      0.00000000      0.00000000</v>
  </separator>
  <separator name="performance" >
   <i type="int" name="NPAR">     4</i>
   <i type="int" name="NSIM">     4</i>
   <i type="int" name="NBLK">    -1</i>
   <i type="logical" name="LPLANE"> T  </i>
   <i type="logical" name="LSCALAPACK"> T  </i>
   <i type="logical" name="LSCAAWARE"> F  </i>
   <i type="logical" name="LSCALU"> F  </i>
   <i type="logical" name="LASYNC"> F  </i>
   <i type="logical" name="LORBITALREAL"> F  </i>
  </separator>
  <separator name="miscellaneous" >
   <i type="int" name="IDIOT">     3</i>
   <i type="int" name="ISPECIAL">     0</i>
   <i type="logical" name="LMUSIC"> F  </i>
   <v name="POMASS">      7.01000000     30.97400000     32.06600000</v>
   <v name="DARWINR">      0.00000000      0.00000000      0.00000000</v>
   <v name="DARWINV">      1.00000000      1.00000000      1.00000000</v>
   <i type="logical" name="LCORR"> T  </i>
  </separator>
  <i type="logical" name="GGA_COMPAT"> T  </i>
  <i type="logical" name="LBERRY"> F  </i>
  <i type="int" name="ICORELEVEL">     0</i>
  <i type="logical" name="LDAU"> F  </i>
  <i type="int" name="I_CONSTRAINED_M">     0</i>
  <separator name="electronic exchange-correlation" >
   <i type="string" name="GGA">--</i>
   <i type="int" name="VOSKOWN">     0</i>
   <i type="logical" name="LHFCALC"> F  </i>
   <i type="string" name="PRECFOCK"></i>
   <i type="logical" name="LSYMGRAD"> F  </i>
   <i type="logical" name="LHFONE"> F  </i>
   <i type="logical" name="LRHFCALC"> F  </i>
   <i type="logical" name="LTHOMAS"> F  </i>
   <i type="logical" name="LMODELHF"> F  </i>
   <i name="ENCUT4O">     -1.00000000</i>
   <i type="int" name="EXXOEP">     0</i>
   <i type="int" name="FOURORBIT">     0</i>
   <i name="AEXX">      0.00000000</i>
   <i name="HFALPHA">      0.00000000</i>
   <i name="MCALPHA">      0.00000000</i>
   <i name="ALDAX">      1.00000000</i>
   <i name="AGGAX">      1.00000000</i>
   <i name="ALDAC">      1.00000000</i>
   <i name="AGGAC">      1.00000000</i>
   <i type="int" name="NKREDX">     1</i>
   <i type="int" name="NKREDY">     1</i>
   <i type="int" name="NKREDZ">     1</i>
   <i type="logical" name="SHIFTRED"> F  </i>
   <i type="logical" name="ODDONLY"> F  </i>
   <i type="logical" name="EVENONLY"> F  </i>
   <i type="int" name="LMAXFOCK">     0</i>
   <i type="int" name="NMAXFOCKAE">     0</i>
   <i type="logical" name="LFOCKAEDFT"> F  </i>
   <i name="HFSCREEN">      0.00000000</i>
   <i name="HFSCREENC">      0.00000000</i>
   <i type="int" name="NBANDSGWLOW">     0</i>
  </separator>
  <separator name="vdW DFT" >
   <i type="logical" name="LUSE_VDW"> F  </i>
   <i name="Zab_VDW">     -0.84910000</i>
   <i name="PARAM1">      0.12340000</i>
   <i name="PARAM2">      1.00000000</i>
   <i name="PARAM3">      0.00000000</i>
  </separator>
  <separator name="model GW" >
   <i type="int" name="MODEL_GW">     0</i>
   <i name="MODEL_EPS0">     10.78429606</i>
   <i name="MODEL_ALPHA">      1.00000000</i>
  </separator>
  <separator name="linear response parameters" >
   <i type="logical" name="LEPSILON"> F  </i>
   <i type="logical" name="LRPA"> F  </i>
   <i type="logical" name="LNABLA"> F  </i>
   <i type="logical" name="LVEL"> F  </i>
   <i type="int" name="KINTER">     0</i>
   <i name="CSHIFT">      0.10000000</i>
   <i name="OMEGAMAX">     -1.00000000</i>
   <i name="DEG_THRESHOLD">      0.00200000</i>
   <i name="RTIME">     -0.10000000</i>
   <i name="WPLASMAI">      0.00000000</i>
   <v name="DFIELD">      0.00000000      0.00000000      0.00000000</v>
   <v name="WPLASMA">      0.00000000      0.00000000      0.00000000      0.00000000      0.00000000      0.00000000      0.00000000      0.00000000      0.00000000</v>
  </separator>
  <separator name="orbital magnetization" >
   <i type="logical" name="NUCIND"> F  </i>
   <v name="MAGPOS">      0.00000000      0.00000000      0.00000000</v>
   <i type="logical" name="LNICSALL"> T  </i>
   <i type="logical" name="ORBITALMAG"> F  </i>
   <i type="logical" name="LMAGBLOCH"> F  </i>
   <i type="logical" name="LCHIMAG"> F  </i>
   <i type="logical" name="LGAUGE"> T  </i>
   <i type="int" name="MAGATOM">     0</i>
   <v name="MAGDIPOL">      0.00000000      0.00000000      0.00000000</v>
   <v name="AVECCONST">      0.00000000      0.00000000      0.00000000</v>
  </separator>
  <separator name="response functions" >
   <i type="logical" name="LADDER"> F  </i>
   <i type="logical" name="LRPAFORCE"> F  </i>
   <i type="logical" name="LFXC"> F  </i>
   <i type="logical" name="LHARTREE"> T  </i>
   <i type="int" name="IBSE">     0</i>
   <v type="int" name="KPOINT">    -1     0     0     0</v>
   <i type="logical" name="LTCTE"> F  </i>
   <i type="logical" name="LTETE"> F  </i>
   <i type="logical" name="LTRIPLET"> F  </i>
   <i type="logical" name="LFXCEPS"> F  </i>
   <i type="logical" name="LFXHEG"> F  </i>
   <i type="int" name="NATURALO">     2</i>
   <i type="logical" name="L2ORDER"> F  </i>
   <i type="logical" name="LMP2LT"> F  </i>
   <i type="logical" name="LUSEW"> F  </i>
   <i name="ENCUTGW">     -2.00000000</i>
   <i name="ENCUTGWSOFT">     -2.00000000</i>
   <i name="ENCUTLF">     -1.00000000</i>
   <i type="int" name="LMAXMP2">    -1</i>
   <i name="SCISSOR">      0.00000000</i>
   <i type="int" name="NOMEGA">     0</i>
   <i type="int" name="NOMEGAR">     0</i>
   <i type="int" name="NBANDSGW">    -1</i>
   <i type="int" name="NBANDSO">    -1</i>
   <i type="int" name="NBANDSV">    -1</i>
   <i type="int" name="NELM">   100</i>
   <i type="int" name="NELMHF">     1</i>
   <i type="int" name="DIM">     3</i>
   <i type="int" name="ANTIRES">     0</i>
   <i name="OMEGAMAX">    -30.00000000</i>
   <i name="OMEGAMIN">    -30.00000000</i>
   <i name="OMEGATL">   -200.00000000</i>
   <i type="int" name="OMEGAGRID">   140</i>
   <i name="CSHIFT">     -0.10000000</i>
   <i type="logical" name="SELFENERGY"> F  </i>
   <i type="logical" name="LSPECTRAL"> F  </i>
   <i type="logical" name="LSPECTRALGW"> F  </i>
   <i type="logical" name="LSINGLES"> F  </i>
   <i type="logical" name="LFERMIGW"> F  </i>
   <i type="logical" name="ODDONLYGW"> F  </i>
   <i type="logical" name="EVENONLYGW"> F  </i>
   <i type="int" name="NKREDLFX">     1</i>
   <i type="int" name="NKREDLFY">     1</i>
   <i type="int" name="NKREDLFZ">     1</i>
   <i type="int" name="MAXMEM">  2800</i>
   <i type="int" name="TELESCOPE">     0</i>
   <i type="int" name="TAUPAR">     1</i>
   <i type="int" name="OMEGAPAR">    -1</i>
   <i name="LAMBDA">      1.00000000</i>
  </separator>
  <separator name="External order field" >
   <i name="OFIELD_KAPPA">      0.00000000</i>
   <v name="OFIELD_K">      0.00000000      0.00000000      0.00000000</v>
   <i name="OFIELD_Q6_NEAR">      0.00000000</i>
   <i name="OFIELD_Q6_FAR">      0.00000000</i>
   <i name="OFIELD_A">      0.00000000</i>
  </separator>
 </parameters>
 <atominfo>
  <atoms>      16 </atoms>
  <types>       3 </types>
  <array name="atoms" >
   <dimension dim="1">ion</dimension>
   <field type="string">element</field>
   <field type="int">atomtype</field>
   <set>
    <rc><c>Li</c><c>   1</c></rc>
    <rc><c>Li</c><c>   1</c></rc>
    <rc><c>Li</c><c>   1</c></rc>
    <rc><c>Li</c><c>   1</c></rc>
    <rc><c>Li</c><c>   1</c></rc>
    <rc><c>Li</c><c>   1</c></rc>
    <rc><c>P </c><c>   2</c></rc>
    <rc><c>P </c><c>   2</c></rc>
    <rc><c>S </c><c>   3</c></rc>
    <rc><c>S </c><c>   3</c></rc>
    <rc><c>S </c><c>   3</c></rc>
    <rc><c>S </c><c>   3</c></rc>
    <rc><c>S </c><c>   3</c></rc>
    <rc><c>S </c><c>   3</c></rc>
    <rc><c>S </c><c>   3</c></rc>
    <rc><c>S </c><c>   3</c></rc>
   </set>
  </array>
  <array name="atomtypes" >
   <dimension dim="1">type</dimension>
   <field type="int">atomspertype</field>
   <field type="string">element</field>
   <field>mass</field>
   <field>valence</field>
   <field type="string">pseudopotential</field>
   <set>
    <rc><c>   6</c><c>Li</c><c>      7.01000000</c><c>      3.00000000</c><c>  PAW Li_sv 10Sep2004                   </c></rc>
    <rc><c>   2</c><c>P </c><c>     30.97400000</c><c>      5.00000000</c><c>  PAW P 26Mar2009                       </c></rc>
    <rc><c>   8</c><c>S </c><c>     32.06600000</c><c>      6.00000000</c><c>  PAW S 27Mar2009                       </c></rc>
   </set>
  </array>
 </atominfo>
 <structure name="initialpos" >
  <crystal>
   <varray name="basis" >
    <v>       5.04309795       2.90228046       0.01211590 </v>
    <v>       0.00000000       5.72399694       1.71274988 </v>
    <v>       0.00000000       0.00000000       9.96239457 </v>
   </varray>
   <i name="volume">    287.58122830 </i>
   <varray name="rec_basis" >
    <v>       0.19829081       0.00000000       0.00000000 </v>
    <v>      -0.10054086       0.17470310       0.00000000 </v>
    <v>       0.01704398      -0.03003522       0.10037747 </v>
   </varray>
  </crystal>
  <varray name="positions" >
   <v>       0.14615230       0.59474625       0.77776775 </v>
   <v>       0.19301277       0.76493512       0.39346423 </v>
   <v>       0.99062403       0.87984632       0.02420626 </v>
   <v>       0.69303335       0.51753589       0.95663251 </v>
   <v>       0.57640210       0.04254476       0.60259759 </v>
   <v>       0.86923900       0.43371081       0.25529134 </v>
   <v>       0.46846869       0.09273291       0.14956120 </v>
   <v>       0.81651444       0.36629603       0.63600857 </v>
   <v>       0.58106259       0.80294973       0.34245952 </v>
   <v>       0.35677716       0.96262645       0.00648438 </v>
   <v>       0.15656981       0.44718211       0.14679364 </v>
   <v>       0.78034472       0.15378502       0.09464376 </v>
   <v>       0.85753614       0.99629029       0.67305971 </v>
   <v>       0.75495134       0.43675805       0.82427845 </v>
   <v>       0.48337811       0.66275853       0.49475118 </v>
   <v>       0.14248667       0.35757005       0.55729614 </v>
  </varray>
 </structure>
 <calculation>
  <scstep>
   <time name="dav">    0.53    0.53</time>
   <time name="total">    0.55    0.58</time>
   <energy>
    <i name="alphaZ">     68.61698981 </i>
    <i name="ewald">  -2530.78567502 </i>
    <i name="hartreedc">   -771.93787607 </i>
    <i name="XCdc">    184.42751204 </i>
    <i name="pawpsdc">   2494.22442938 </i>
    <i name="pawaedc">  -2541.12215007 </i>
    <i name="eentropy">      0.00000000 </i>
    <i name="bandstr">   -136.07224007 </i>
    <i name="atom">   3769.08782378 </i>
    <i name="e_fr_energy">    536.43881379 </i>
    <i name="e_wo_entrp">    536.43881379 </i>
    <i name="e_0_energy">    536.43881379 </i>
   </energy>
  </scstep>
  <scstep>
   <time name="dav">    0.54    0.54</time>
   <time name="total">    0.54    0.55</time>
   <energy>
    <i name="e_fr_energy">     13.06829939 </i>
    <i name="e_wo_entrp">     13.06829939 </i>
    <i name="e_0_energy">     13.06829939 </i>
   </energy>
  </scstep>
  <scstep>
   <time name="dav">    0.64    0.65</time>
   <time name="total">    0.65    0.65</time>
   <energy>
    <i name="e_fr_energy">    -54.62412778 </i>
    <i name="e_wo_entrp">    -54.62412778 </i>
    <i name="e_0_energy">    -54.62412778 </i>
   </energy>
  </scstep>
  <scstep>
   <time name="dav">    0.82    0.83</time>
   <time name="total">    0.82    0.83</time>
   <energy>
    <i name="e_fr_energy">    -64.35522659 </i>
    <i name="e_wo_entrp">    -64.35522659 </i>
    <i name="e_0_energy">    -64.35522659 </i>
   </energy>
  </scstep>
  <scstep>
   <time name="dav">    0.68    0.68</time>
   <time name="total">    0.71    0.72</time>
   <energy>
    <i name="e_fr_energy">    -65.25869925 </i>
    <i name="e_wo_entrp">    -65.25869925 </i>
    <i name="e_0_energy">    -65.25869925 </i>
   </energy>
  </scstep>
  <scstep>
   <time name="diag">    0.14    0.14</time>
   <time name="diis">    0.23    0.23</time>
   <time name="orth">    0.01    0.01</time>
   <time name="total">    0.42    0.42</time>
   <energy>
    <i name="e_fr_energy">    -61.39307628 </i>
    <i name="e_wo_entrp">    -61.39307628 </i>
    <i name="e_0_energy">    -61.39307628 </i>
   </energy>
  </scstep>
  <scstep>
   <time name="diag">    0.15    0.15</time>
   <time name="diis">    0.25    0.25</time>
   <time name="orth">    0.01    0.01</time>
   <time name="total">    0.45    0.45</time>
   <energy>
    <i name="e_fr_energy">    -60.90668573 </i>
    <i name="e_wo_entrp">    -60.90668573 </i>
    <i name="e_0_energy">    -60.90668573 </i>
   </energy>
  </scstep>
  <scstep>
   <time name="diag">    0.15    0.15</time>
   <time name="diis">    0.27    0.27</time>
   <time name="orth">    0.01    0.01</time>
   <time name="total">    0.47    0.47</time>
   <energy>
    <i name="e_fr_energy">    -60.71093790 </i>
    <i name="e_wo_entrp">    -60.71093790 </i>
    <i name="e_0_energy">    -60.71093790 </i>
   </energy>
  </scstep>
  <scstep>
   <time name="diag">    0.15    0.15</time>
   <time name="diis">    0.31    0.31</time>
   <time name="orth">    0.01    0.01</time>
   <time name="total">    0.50    0.50</time>
   <energy>
    <i name="e_fr_energy">    -60.70108655 </i>
    <i name="e_wo_entrp">    -60.70108655 </i>
    <i name="e_0_energy">    -60.70108655 </i>
   </energy>
  </scstep>
  <scstep>
   <time name="diag">    0.14    0.15</time>
   <time name="diis">    0.33    0.33</time>
   <time name="orth">    0.01    0.01</time>
   <time name="total">    0.52    0.52</time>
   <energy>
    <i name="e_fr_energy">    -60.70121102 </i>
    <i name="e_wo_entrp">    -60.70121102 </i>
    <i name="e_0_energy">    -60.70121102 </i>
   </energy>
  </scstep>
  <scstep>
   <time name="diag">    0.14    0.14</time>
   <time name="diis">    0.32    0.33</time>
   <time name="orth">    0.01    0.01</time>
   <time name="total">    0.51    0.52</time>
   <energy>
    <i name="e_fr_energy">    -60.70161623 </i>
    <i name="e_wo_entrp">    -60.70161623 </i>
    <i name="e_0_energy">    -60.70161623 </i>
   </energy>
  </scstep>
  <scstep>
   <time name="diag">    0.14    0.14</time>
   <time name="diis">    0.32    0.33</time>
   <time name="orth">    0.01    0.01</time>
   <time name="total">    0.51    0.52</time>
   <energy>
    <i name="e_fr_energy">    -60.70187101 </i>
    <i name="e_wo_entrp">    -60.70187101 </i>
    <i name="e_0_energy">    -60.70187101 </i>
   </energy>
  </scstep>
  <scstep>
   <time name="diag">    0.14    0.14</time>
   <time name="diis">    0.27    0.27</time>
   <time name="orth">    0.01    0.01</time>
   <time name="total">    0.46    0.46</time>
   <energy>
    <i name="e_fr_energy">    -60.70200563 </i>
    <i name="e_wo_entrp">    -60.70200563 </i>
    <i name="e_0_energy">    -60.70200563 </i>
   </energy>
  </scstep>
  <scstep>
   <time name="diag">    0.14    0.14</time>
   <time name="diis">    0.27    0.28</time>
   <time name="orth">    0.01    0.01</time>
   <time name="total">    0.46    0.47</time>
   <energy>
    <i name="e_fr_energy">    -60.70207610 </i>
    <i name="e_wo_entrp">    -60.70207610 </i>
    <i name="e_0_energy">    -60.70207610 </i>
   </energy>
  </scstep>
  <scstep>
   <time name="diag">    0.14    0.14</time>
   <time name="diis">    0.23    0.23</time>
   <time name="orth">    0.01    0.01</time>
   <time name="total">    0.42    0.42</time>
   <energy>
    <i name="e_fr_energy">    -60.70210619 </i>
    <i name="e_wo_entrp">    -60.70210619 </i>
    <i name="e_0_energy">    -60.70210619 </i>
   </energy>
  </scstep>
  <scstep>
   <time name="diag">    0.14    0.14</time>
   <time name="diis">    0.22    0.23</time>
   <time name="orth">    0.01    0.01</time>
   <time name="total">    0.38    0.39</time>
   <energy>
    <i name="alphaZ">     68.61698981 </i>
    <i name="ewald">  -2530.78567502 </i>
    <i name="hartreedc">   -829.78858529 </i>
    <i name="XCdc">    189.49615542 </i>
    <i name="pawpsdc">  10053.90036157 </i>
    <i name="pawaedc"> -10102.01318939 </i>
    <i name="eentropy">      0.00000000 </i>
    <i name="bandstr">   -679.21600249 </i>
    <i name="atom">   3769.08782378 </i>
    <i name="e_fr_energy">    -60.70212161 </i>
    <i name="e_wo_entrp">    -60.70212161 </i>
    <i name="e_0_energy">    -60.70212161 </i>
   </energy>
  </scstep>
  <structure>
   <crystal>
    <varray name="basis" >
     <v>       5.04309795       2.90228046       0.01211590 </v>
     <v>       0.00000000       5.72399694       1.71274988 </v>
     <v>       0.00000000       0.00000000       9.96239457 </v>
    </varray>
    <i name="volume">    287.58122830 </i>
    <varray name="rec_basis" >
     <v>       0.19829081       0.00000000       0.00000000 </v>
     <v>      -0.10054086       0.17470310       0.00000000 </v>
     <v>       0.01704398      -0.03003522       0.10037747 </v>
    </varray>
   </crystal>
   <varray name="positions" >
    <v>       0.14615230       0.59474625       0.77776775 </v>
    <v>       0.19301277       0.76493512       0.39346423 </v>
    <v>       0.99062403       0.87984632       0.02420626 </v>
    <v>       0.69303335       0.51753589       0.95663251 </v>
    <v>       0.57640210       0.04254476       0.60259759 </v>
    <v>       0.86923900       0.43371081       0.25529134 </v>
    <v>       0.46846869       0.09273291       0.14956120 </v>
    <v>       0.81651444       0.36629603       0.63600857 </v>
    <v>       0.58106259       0.80294973       0.34245952 </v>
    <v>       0.35677716       0.96262645       0.00648438 </v>
    <v>       0.15656981       0.44718211       0.14679364 </v>
    <v>       0.78034472       0.15378502       0.09464376 </v>
    <v>       0.85753614       0.99629029       0.67305971 </v>
    <v>       0.75495134       0.43675805       0.82427845 </v>
    <v>       0.48337811       0.66275853       0.49475118 </v>
    <v>       0.14248667       0.35757005       0.55729614 </v>
   </varray>
  </structure>
  <varray name="forces" >
   <v>       1.05714457      -1.29867630       0.13176241 </v>
   <v>      -6.40424513      -1.41276092      -3.74923288 </v>
   <v>       2.46380744      -1.44596014      -2.79039454 </v>
   <v>      -3.25304962       3.96136960      12.80333731 </v>
   <v>      -8.31909590      -3.86472503      -3.71113456 </v>
   <v>      -1.47223304      -0.95867302       0.79610083 </v>
   <v>      -0.62181731       1.59489146      -2.82972777 </v>
   <v>       0.99405723      -0.82965311       1.81969937 </v>
   <v>       2.88619338       5.72969097      -6.06895366 </v>
   <v>       0.58911347      -0.02034735      -0.94436674 </v>
   <v>       0.61784219       0.98476161      -0.46979797 </v>
   <v>      -1.68813961       0.67758760       4.52491846 </v>
   <v>       7.82528976       2.84895682       3.25074982 </v>
   <v>       2.96736815      -1.37586838     -13.88168090 </v>
   <v>       3.24205051      -5.21145021      11.02878343 </v>
   <v>      -0.88428609       0.62085638       0.08993738 </v>
  </varray>
  <varray name="stress" >
   <v>     160.66821397      10.21397732       8.12686452 </v>
   <v>      10.21397730     130.15695620     -59.76621343 </v>
   <v>       8.12686486     -59.76621328     255.97087843 </v>
  </varray>
  <energy>
   <i name="e_fr_energy">    -60.70212161 </i>
   <i name="e_wo_entrp">    -60.70212161 </i>
   <i name="e_0_energy">      0.00000000 </i>
  </energy>
  <time name="totalsc">    8.98    9.15</time>
 </calculation>
 <calculation>
  <scstep>
   <time name="dav">    0.49    0.49</time>
   <time name="total">    0.53    0.54</time>
   <energy>
    <i name="alphaZ">     51.84462227 </i>
    <i name="ewald">  -2231.91437426 </i>
    <i name="hartreedc">   -821.20939623 </i>
    <i name="XCdc">    175.24174346 </i>
    <i name="pawpsdc">  10054.00982081 </i>
    <i name="pawaedc"> -10102.12237445 </i>
    <i name="eentropy">      0.00000000 </i>
    <i name="bandstr">   -927.00921289 </i>
    <i name="atom">   3769.08782378 </i>
    <i name="e_fr_energy">    -32.07134752 </i>
    <i name="e_wo_entrp">    -32.07134752 </i>
    <i name="e_0_energy">    -32.07134752 </i>
   </energy>
  </scstep>
  <scstep>
   <time name="diag">    0.14    0.14</time>
   <time name="diis">    0.29    0.29</time>
   <time name="orth">    0.01    0.01</time>
   <time name="total">    0.47    0.48</time>
   <energy>
    <i name="e_fr_energy">    -64.64165182 </i>
    <i name="e_wo_entrp">    -64.64165182 </i>
    <i name="e_0_energy">    -64.64165182 </i>
   </energy>
  </scstep>
  <scstep>
   <time name="diag">    0.14    0.14</time>
   <time name="diis">    0.35    0.35</time>
   <time name="orth">    0.01    0.01</time>
   <time name="total">    0.53    0.54</time>
   <energy>
    <i name="e_fr_energy">    -58.88323563 </i>
    <i name="e_wo_entrp">    -58.88323563 </i>
    <i name="e_0_energy">    -58.88323563 </i>
   </energy>
  </scstep>
  <scstep>
   <time name="diag">    0.14    0.14</time>
   <time name="diis">    0.34    0.34</time>
   <time name="orth">    0.01    0.01</time>
   <time name="total">    0.52    0.53</time>
   <energy>
    <i name="e_fr_energy">    -59.76629525 </i>
    <i name="e_wo_entrp">    -59.76629525 </i>
    <i name="e_0_energy">    -59.76629525 </i>
   </energy>
  </scstep>
  <scstep>
   <time name="diag">    0.14    0.14</time>
   <time name="diis">    0.32    0.32</time>
   <time name="orth">    0.01    0.01</time>
   <time name="total">    0.51    0.52</time>
   <energy>
    <i name="e_fr_energy">    -60.17442709 </i>
    <i name="e_wo_entrp">    -60.17442709 </i>
    <i name="e_0_energy">    -60.17442709 </i>
   </energy>
  </scstep>
  <scstep>
   <time name="diag">    0.14    0.14</time>
   <time name="diis">    0.35    0.36</time>
   <time name="orth">    0.01    0.01</time>
   <time name="total">    0.54    0.55</time>
   <energy>
    <i name="e_fr_energy">    -60.48170578 </i>
    <i name="e_wo_entrp">    -60.48170578 </i>
    <i name="e_0_energy">    -60.48170578 </i>
   </energy>
  </scstep>
  <scstep>
   <time name="diag">    0.14    0.15</time>
   <time name="diis">    0.37    0.37</time>
   <time name="orth">    0.01    0.01</time>
   <time name="total">    0.56    0.56</time>
   <energy>
    <i name="e_fr_energy">    -60.52426665 </i>
    <i name="e_wo_entrp">    -60.52426665 </i>
    <i name="e_0_energy">    -60.52426665 </i>
   </energy>
  </scstep>
  <scstep>
   <time name="diag">    0.14    0.14</time>
   <time name="diis">    0.36    0.36</time>
   <time name="orth">    0.01    0.01</time>
   <time name="total">    0.55    0.56</time>
   <energy>
    <i name="e_fr_energy">    -60.53781406 </i>
    <i name="e_wo_entrp">    -60.53781406 </i>
    <i name="e_0_energy">    -60.53781406 </i>
   </energy>
  </scstep>
  <scstep>
   <time name="diag">    0.14    0.14</time>
   <time name="diis">    0.36    0.37</time>
   <time name="orth">    0.01    0.01</time>
   <time name="total">    0.55    0.56</time>
   <energy>
    <i name="e_fr_energy">    -60.55054021 </i>
    <i name="e_wo_entrp">    -60.55054021 </i>
    <i name="e_0_energy">    -60.55054021 </i>
   </energy>
  </scstep>
  <scstep>
   <time name="diag">    0.14    0.14</time>
   <time name="diis">    0.36    0.37</time>
   <time name="orth">    0.01    0.01</time>
   <time name="total">    0.55    0.55</time>
   <energy>
    <i name="e_fr_energy">    -60.55848456 </i>
    <i name="e_wo_entrp">    -60.55848456 </i>
    <i name="e_0_energy">    -60.55848456 </i>
   </energy>
  </scstep>
  <scstep>
   <time name="diag">    0.14    0.14</time>
   <time name="diis">    0.36    0.36</time>
   <time name="orth">    0.01    0.01</time>
   <time name="total">    0.54    0.55</time>
   <energy>
    <i name="e_fr_energy">    -60.56318134 </i>
    <i name="e_wo_entrp">    -60.56318134 </i>
    <i name="e_0_energy">    -60.56318134 </i>
   </energy>
  </scstep>
  <scstep>
   <time name="diag">    0.14    0.14</time>
   <time name="diis">    0.35    0.36</time>
   <time name="orth">    0.01    0.01</time>
   <time name="total">    0.54    0.55</time>
   <energy>
    <i name="e_fr_energy">    -60.56653959 </i>
    <i name="e_wo_entrp">    -60.56653959 </i>
    <i name="e_0_energy">    -60.56653959 </i>
   </energy>
  </scstep>
  <scstep>
   <time name="diag">    0.14    0.14</time>
   <time name="diis">    0.35    0.35</time>
   <time name="orth">    0.01    0.01</time>
   <time name="total">    0.54    0.54</time>
   <energy>
    <i name="e_fr_energy">    -60.56821105 </i>
    <i name="e_wo_entrp">    -60.56821105 </i>
    <i name="e_0_energy">    -60.56821105 </i>
   </energy>
  </scstep>
  <scstep>
   <time name="diag">    0.14    0.14</time>
   <time name="diis">    0.35    0.35</time>
   <time name="orth">    0.01    0.01</time>
   <time name="total">    0.54    0.54</time>
   <energy>
    <i name="e_fr_energy">    -60.56938550 </i>
    <i name="e_wo_entrp">    -60.56938550 </i>
    <i name="e_0_energy">    -60.56938550 </i>
   </energy>
  </scstep>
  <scstep>
   <time name="diag">    0.14    0.14</time>
   <time name="diis">    0.34    0.34</time>
   <time name="orth">    0.01    0.01</time>
   <time name="total">    0.53    0.53</time>
   <energy>
    <i name="e_fr_energy">    -60.57002383 </i>
    <i name="e_wo_entrp">    -60.57002383 </i>
    <i name="e_0_energy">    -60.57002383 </i>
   </energy>
  </scstep>
  <scstep>
   <time name="diag">    0.14    0.14</time>
   <time name="diis">    0.32    0.33</time>
   <time name="orth">    0.01    0.01</time>
   <time name="total">    0.51    0.52</time>
   <energy>
    <i name="e_fr_energy">    -60.57042439 </i>
    <i name="e_wo_entrp">    -60.57042439 </i>
    <i name="e_0_energy">    -60.57042439 </i>
   </energy>
  </scstep>
  <scstep>
   <time name="diag">    0.14    0.14</time>
   <time name="diis">    0.32    0.32</time>
   <time name="orth">    0.01    0.01</time>
   <time name="total">    0.51    0.52</time>
   <energy>
    <i name="e_fr_energy">    -60.57065991 </i>
    <i name="e_wo_entrp">    -60.57065991 </i>
    <i name="e_0_energy">    -60.57065991 </i>
   </energy>
  </scstep>
  <scstep>
   <time name="diag">    0.14    0.14</time>
   <time name="diis">    0.31    0.31</time>
   <time name="orth">    0.01    0.01</time>
   <time name="total">    0.50    0.50</time>
   <energy>
    <i name="e_fr_energy">    -60.57080883 </i>
    <i name="e_wo_entrp">    -60.57080883 </i>
    <i name="e_0_energy">    -60.57080883 </i>
   </energy>
  </scstep>
  <scstep>
   <time name="diag">    0.14    0.14</time>
   <time name="diis">    0.30    0.30</time>
   <time name="orth">    0.01    0.01</time>
   <time name="total">    0.49    0.50</time>
   <energy>
    <i name="e_fr_energy">    -60.57089998 </i>
    <i name="e_wo_entrp">    -60.57089998 </i>
    <i name="e_0_energy">    -60.57089998 </i>
   </energy>
  </scstep>
  <scstep>
   <time name="diag">    0.14    0.14</time>
   <time name="diis">    0.31    0.31</time>
   <time name="orth">    0.01    0.01</time>
   <time name="total">    0.50    0.50</time>
   <energy>
    <i name="e_fr_energy">    -60.57094499 </i>
    <i name="e_wo_entrp">    -60.57094499 </i>
    <i name="e_0_energy">    -60.57094499 </i>
   </energy>
  </scstep>
  <scstep>
   <time name="diag">    0.14    0.14</time>
   <time name="diis">    0.29    0.29</time>
   <time name="orth">    0.01    0.01</time>
   <time name="total">    0.48    0.48</time>
   <energy>
    <i name="e_fr_energy">    -60.57097905 </i>
    <i name="e_wo_entrp">    -60.57097905 </i>
    <i name="e_0_energy">    -60.57097905 </i>
   </energy>
  </scstep>
  <scstep>
   <time name="diag">    0.14    0.14</time>
   <time name="diis">    0.26    0.27</time>
   <time name="orth">    0.01    0.01</time>
   <time name="total">    0.46    0.46</time>
   <energy>
    <i name="e_fr_energy">    -60.57099686 </i>
    <i name="e_wo_entrp">    -60.57099686 </i>
    <i name="e_0_energy">    -60.57099686 </i>
   </energy>
  </scstep>
  <scstep>
   <time name="diag">    0.14    0.14</time>
   <time name="diis">    0.24    0.24</time>
   <time name="orth">    0.01    0.01</time>
   <time name="total">    0.39    0.40</time>
   <energy>
    <i name="alphaZ">     51.84462227 </i>
    <i name="ewald">  -2231.91437426 </i>
    <i name="hartreedc">   -983.98834855 </i>
    <i name="XCdc">    183.76966429 </i>
    <i name="pawpsdc">   9029.46675851 </i>
    <i name="pawaedc">  -9081.81141900 </i>
    <i name="eentropy">      0.00000000 </i>
    <i name="bandstr">   -797.02573287 </i>
    <i name="atom">   3769.08782378 </i>
    <i name="e_fr_energy">    -60.57100584 </i>
    <i name="e_wo_entrp">    -60.57100584 </i>
    <i name="e_0_energy">    -60.57100584 </i>
   </energy>
  </scstep>
  <structure>
   <crystal>
    <varray name="basis" >
     <v>       5.49771372       3.13420700      -0.05790100 </v>
     <v>       0.03917456       6.07180369       1.76487460 </v>
     <v>       0.04381753      -0.32224088      11.34251015 </v>
    </varray>
    <i name="volume">    380.61726267 </i>
    <varray name="rec_basis" >
     <v>       0.18243579      -0.00096424      -0.00073217 </v>
     <v>      -0.09335130       0.16384021       0.00501533 </v>
     <v>       0.01545659      -0.02549817       0.08737979 </v>
    </varray>
   </crystal>
   <varray name="positions" >
    <v>       0.15626503       0.57867330       0.78115680 </v>
    <v>       0.13174928       0.78409105       0.37208985 </v>
    <v>       0.01419300       0.85570921       0.01481486 </v>
    <v>       0.66191444       0.56670133       0.01021761 </v>
    <v>       0.49682100       0.05032291       0.58338606 </v>
    <v>       0.85515551       0.43277184       0.25932500 </v>
    <v>       0.46252034       0.10919092       0.13303606 </v>
    <v>       0.82602367       0.35448207       0.64683993 </v>
    <v>       0.60867214       0.83724131       0.30714172 </v>
    <v>       0.36241266       0.95959755       0.00242519 </v>
    <v>       0.16248013       0.45248507       0.14359978 </v>
    <v>       0.76419585       0.16768391       0.11418569 </v>
    <v>       0.93239345       0.98234625       0.69110763 </v>
    <v>       0.78333740       0.41076924       0.76149026 </v>
    <v>       0.51439181       0.60311058       0.55837484 </v>
    <v>       0.13402752       0.36709182       0.55610495 </v>
   </varray>
  </structure>
  <varray name="forces" >
   <v>       0.28016125      -0.65927295      -0.71436677 </v>
   <v>       0.28950656      -0.57702078       0.27033638 </v>
   <v>      -0.02173606       0.76315607      -0.17719166 </v>
   <v>       0.32496422       0.24942718      -0.52653795 </v>
   <v>       1.09010187      -0.58160822      -0.03547798 </v>
   <v>      -0.11132518       0.06971126       0.42724814 </v>
   <v>       0.46539963      -1.24490056       0.73068434 </v>
   <v>      10.97973135      -5.78450106     -46.62089837 </v>
   <v>      -1.23182022       0.16387678      -0.75198136 </v>
   <v>       0.23395872       1.60581599       0.98807853 </v>
   <v>       0.43291426      -0.76309746      -0.47606004 </v>
   <v>      -0.18381513       0.00071562      -0.38593893 </v>
   <v>      -0.28119354      -1.72673882      -1.38969991 </v>
   <v>      -5.50729361       7.07292169      52.38242063 </v>
   <v>      -4.73094613       1.17295171      -4.15520440 </v>
   <v>      -2.02860800       0.23856356       0.43458935 </v>
  </varray>
  <varray name="stress" >
   <v>     -17.16956612     -30.28289901     -31.63046557 </v>
   <v>     -30.28289855     -15.57499425      25.92966815 </v>
   <v>     -31.63046577      25.92966837     255.93115375 </v>
  </varray>
  <energy>
   <i name="e_fr_energy">    -60.57100584 </i>
   <i name="e_wo_entrp">    -60.57100584 </i>
   <i name="e_0_energy">      0.00000000 </i>
  </energy>
  <time name="totalsc">   12.45   12.63</time>
 </calculation>
 <calculation>
  <scstep>
   <time name="dav">    0.49    0.49</time>
   <time name="total">    0.53    0.54</time>
   <energy>
    <i name="alphaZ">     60.29008960 </i>
    <i name="ewald">  -2456.05361201 </i>
    <i name="hartreedc">   -953.00338129 </i>
    <i name="XCdc">    192.09463536 </i>
    <i name="pawpsdc">   9029.45632376 </i>
    <i name="pawaedc">  -9081.80053852 </i>
    <i name="eentropy">      0.00000000 </i>
    <i name="bandstr">   -628.80355224 </i>
    <i name="atom">   3769.08782378 </i>
    <i name="e_fr_energy">    -68.73221155 </i>
    <i name="e_wo_entrp">    -68.73221155 </i>
    <i name="e_0_energy">    -68.73221155 </i>
   </energy>
  </scstep>
  <scstep>
   <time name="diag">    0.14    0.14</time>
   <time name="diis">    0.27    0.27</time>
   <time name="orth">    0.01    0.01</time>
   <time name="total">    0.45    0.46</time>
   <energy>
    <i name="e_fr_energy">    -70.87246348 </i>
    <i name="e_wo_entrp">    -70.87246348 </i>
    <i name="e_0_energy">    -70.87246348 </i>
   </energy>
  </scstep>
  <scstep>
   <time name="diag">    0.14    0.14</time>
   <time name="diis">    0.34    0.34</time>
   <time name="orth">    0.01    0.01</time>
   <time name="total">    0.52    0.53</time>
   <energy>
    <i name="e_fr_energy">    -69.65251699 </i>
    <i name="e_wo_entrp">    -69.65251699 </i>
    <i name="e_0_energy">    -69.65251699 </i>
   </energy>
  </scstep>
  <scstep>
   <time name="diag">    0.14    0.14</time>
   <time name="diis">    0.33    0.33</time>
   <time name="orth">    0.01    0.01</time>
   <time name="total">    0.51    0.52</time>
   <energy>
    <i name="e_fr_energy">    -70.15264137 </i>
    <i name="e_wo_entrp">    -70.15264137 </i>
    <i name="e_0_energy">    -70.15264137 </i>
   </energy>
  </scstep>
  <scstep>
   <time name="diag">    0.14    0.14</time>
   <time name="diis">    0.37    0.37</time>
   <time name="orth">    0.01    0.01</time>
   <time name="total">    0.55    0.56</time>
   <energy>
    <i name="e_fr_energy">    -70.24311347 </i>
    <i name="e_wo_entrp">    -70.24311347 </i>
    <i name="e_0_energy">    -70.24311347 </i>
   </energy>
  </scstep>
  <scstep>
   <time name="diag">    0.14    0.14</time>
   <time name="diis">    0.35    0.35</time>
   <time name="orth">    0.01    0.01</time>
   <time name="total">    0.54    0.54</time>
   <energy>
    <i name="e_fr_energy">    -70.25322352 </i>
    <i name="e_wo_entrp">    -70.25322352 </i>
    <i name="e_0_energy">    -70.25322352 </i>
   </energy>
  </scstep>
  <scstep>
   <time name="diag">    0.14    0.14</time>
   <time name="diis">    0.37    0.38</time>
   <time name="orth">    0.01    0.01</time>
   <time name="total">    0.56    0.57</time>
   <energy>
    <i name="e_fr_energy">    -70.25883449 </i>
    <i name="e_wo_entrp">    -70.25883449 </i>
    <i name="e_0_energy">    -70.25883449 </i>
   </energy>
  </scstep>
  <scstep>
   <time name="diag">    0.14    0.15</time>
   <time name="diis">    0.37    0.37</time>
   <time name="orth">    0.01    0.01</time>
   <time name="total">    0.56    0.57</time>
   <energy>
    <i name="e_fr_energy">    -70.26278515 </i>
    <i name="e_wo_entrp">    -70.26278515 </i>
    <i name="e_0_energy">    -70.26278515 </i>
   </energy>
  </scstep>
  <scstep>
   <time name="diag">    0.14    0.14</time>
   <time name="diis">    0.37    0.37</time>
   <time name="orth">    0.01    0.01</time>
   <time name="total">    0.56    0.56</time>
   <energy>
    <i name="e_fr_energy">    -70.26510795 </i>
    <i name="e_wo_entrp">    -70.26510795 </i>
    <i name="e_0_energy">    -70.26510795 </i>
   </energy>
  </scstep>
  <scstep>
   <time name="diag">    0.14    0.14</time>
   <time name="diis">    0.36    0.37</time>
   <time name="orth">    0.01    0.01</time>
   <time name="total">    0.55    0.56</time>
   <energy>
    <i name="e_fr_energy">    -70.26632064 </i>
    <i name="e_wo_entrp">    -70.26632064 </i>
    <i name="e_0_energy">    -70.26632064 </i>
   </energy>
  </scstep>
  <scstep>
   <time name="diag">    0.14    0.14</time>
   <time name="diis">    0.35    0.36</time>
   <time name="orth">    0.01    0.01</time>
   <time name="total">    0.54    0.54</time>
   <energy>
    <i name="e_fr_energy">    -70.26692954 </i>
    <i name="e_wo_entrp">    -70.26692954 </i>
    <i name="e_0_energy">    -70.26692954 </i>
   </energy>
  </scstep>
  <scstep>
   <time name="diag">    0.14    0.14</time>
   <time name="diis">    0.35    0.35</time>
   <time name="orth">    0.01    0.01</time>
   <time name="total">    0.54    0.54</time>
   <energy>
    <i name="e_fr_energy">    -70.26730164 </i>
    <i name="e_wo_entrp">    -70.26730164 </i>
    <i name="e_0_energy">    -70.26730164 </i>
   </energy>
  </scstep>
  <scstep>
   <time name="diag">    0.14    0.14</time>
   <time name="diis">    0.35    0.36</time>
   <time name="orth">    0.01    0.01</time>
   <time name="total">    0.54    0.55</time>
   <energy>
    <i name="e_fr_energy">    -70.26751371 </i>
    <i name="e_wo_entrp">    -70.26751371 </i>
    <i name="e_0_energy">    -70.26751371 </i>
   </energy>
  </scstep>
  <scstep>
   <time name="diag">    0.14    0.14</time>
   <time name="diis">    0.33    0.33</time>
   <time name="orth">    0.01    0.01</time>
   <time name="total">    0.52    0.52</time>
   <energy>
    <i name="e_fr_energy">    -70.26763975 </i>
    <i name="e_wo_entrp">    -70.26763975 </i>
    <i name="e_0_energy">    -70.26763975 </i>
   </energy>
  </scstep>
  <scstep>
   <time name="diag">    0.14    0.14</time>
   <time name="diis">    0.31    0.31</time>
   <time name="orth">    0.01    0.01</time>
   <time name="total">    0.50    0.50</time>
   <energy>
    <i name="e_fr_energy">    -70.26770670 </i>
    <i name="e_wo_entrp">    -70.26770670 </i>
    <i name="e_0_energy">    -70.26770670 </i>
   </energy>
  </scstep>
  <scstep>
   <time name="diag">    0.14    0.14</time>
   <time name="diis">    0.28    0.28</time>
   <time name="orth">    0.01    0.01</time>
   <time name="total">    0.47    0.47</time>
   <energy>
    <i name="e_fr_energy">    -70.26773984 </i>
    <i name="e_wo_entrp">    -70.26773984 </i>
    <i name="e_0_energy">    -70.26773984 </i>
   </energy>
  </scstep>
  <scstep>
   <time name="diag">    0.14    0.14</time>
   <time name="diis">    0.26    0.26</time>
   <time name="orth">    0.01    0.01</time>
   <time name="total">    0.42    0.42</time>
   <energy>
    <i name="alphaZ">     60.29008960 </i>
    <i name="ewald">  -2456.05361201 </i>
    <i name="hartreedc">   -847.98613816 </i>
    <i name="XCdc">    185.29845164 </i>
    <i name="pawpsdc">   8245.32577517 </i>
    <i name="pawaedc">  -8296.28092815 </i>
    <i name="eentropy">      0.00000000 </i>
    <i name="bandstr">   -729.94921786 </i>
    <i name="atom">   3769.08782378 </i>
    <i name="e_fr_energy">    -70.26775599 </i>
    <i name="e_wo_entrp">    -70.26775599 </i>
    <i name="e_0_energy">    -70.26775599 </i>
   </energy>
  </scstep>
  <structure>
   <crystal>
    <varray name="basis" >
     <v>       5.24688636       3.00624505      -0.01927024 </v>
     <v>       0.01756059       5.87990659       1.73611558 </v>
     <v>       0.01964187      -0.14444936      10.58105231 </v>
    </varray>
    <i name="volume">    327.30019715 </i>
    <varray name="rec_basis" >
     <v>       0.19085347      -0.00046352      -0.00036061 </v>
     <v>      -0.09717823       0.16962397       0.00249605 </v>
     <v>       0.01629237      -0.02783237       0.09409836 </v>
    </varray>
   </crystal>
   <varray name="positions" >
    <v>       0.15110085       0.58694592       0.77953403 </v>
    <v>       0.16273847       0.77483962       0.38248577 </v>
    <v>       0.00213745       0.86850942       0.01930977 </v>
    <v>       0.67806217       0.53963379      -0.01553353 </v>
    <v>       0.53704636       0.04700139       0.59281704 </v>
    <v>       0.86229547       0.43318817       0.25742848 </v>
    <v>       0.46552563       0.10106836       0.14095570 </v>
    <v>       0.82121077       0.36032721       0.64163563 </v>
    <v>       0.59468579       0.82023598       0.32395816 </v>
    <v>       0.35953305       0.96127615       0.00436542 </v>
    <v>       0.15949606       0.44978846       0.14510659 </v>
    <v>       0.77249890       0.15993033       0.10481601 </v>
    <v>       0.89453093       0.98893196       0.68226118 </v>
    <v>       0.76862226       0.42599562       0.79162170 </v>
    <v>       0.49872985       0.63242091       0.52785331 </v>
    <v>       0.13833923       0.36217505       0.55668094 </v>
   </varray>
  </structure>
  <varray name="forces" >
   <v>       0.74294568      -1.11190625      -0.37373589 </v>
   <v>      -0.48274538      -0.43505216      -0.52636713 </v>
   <v>       0.60283878       0.26536702      -0.92353707 </v>
   <v>      -0.17989908       1.25273005      -0.18257047 </v>
   <v>      -0.14129205      -0.84580974      -0.38661458 </v>
   <v>      -0.61339849      -0.30905874       0.51154808 </v>
   <v>       0.38369595      -0.71899474      -0.53118206 </v>
   <v>       2.65021373      -0.82313004      -8.22728852 </v>
   <v>      -1.18527191       0.98256984      -1.15710402 </v>
   <v>       0.53498756       0.85031815       0.11300054 </v>
   <v>       0.45723344      -0.10140396      -0.40935548 </v>
   <v>      -0.27819918       0.01223548       1.19461343 </v>
   <v>       0.06131821      -0.43647827      -0.55367631 </v>
   <v>      -0.56239445       1.93495022      10.42297479 </v>
   <v>      -0.46084558      -0.79582150       0.53621457 </v>
   <v>      -1.52918721       0.27948466       0.49308010 </v>
  </varray>
  <varray name="stress" >
   <v>      -2.80281460     -16.59082669      -3.19536129 </v>
   <v>     -16.59082674      20.62240062     -21.71094649 </v>
   <v>      -3.19536143     -21.71094644      97.26202559 </v>
  </varray>
  <energy>
   <i name="e_fr_energy">    -70.26775599 </i>
   <i name="e_wo_entrp">    -70.26775599 </i>
   <i name="e_0_energy">      0.00000000 </i>
  </energy>
  <time name="totalsc">    9.47    9.63</time>
 </calculation>
 <calculation>
  <scstep>
   <time name="dav">    0.55    0.55</time>
   <time name="total">    0.59    0.60</time>
   <energy>
    <i name="alphaZ">     60.59124573 </i>
    <i name="ewald">  -2461.56525245 </i>
    <i name="hartreedc">   -848.49742570 </i>
    <i name="XCdc">    185.61136493 </i>
    <i name="pawpsdc">   8245.35855495 </i>
    <i name="pawaedc">  -8296.31336677 </i>
    <i name="eentropy">      0.00000000 </i>
    <i name="bandstr">   -724.57753496 </i>
    <i name="atom">   3769.08782378 </i>
    <i name="e_fr_energy">    -70.30459047 </i>
    <i name="e_wo_entrp">    -70.30459047 </i>
    <i name="e_0_energy">    -70.30459047 </i>
   </energy>
  </scstep>
  <scstep>
   <time name="diag">    0.14    0.14</time>
   <time name="diis">    0.29    0.29</time>
   <time name="orth">    0.01    0.01</time>
   <time name="total">    0.47    0.48</time>
   <energy>
    <i name="e_fr_energy">    -70.30420198 </i>
    <i name="e_wo_entrp">    -70.30420198 </i>
    <i name="e_0_energy">    -70.30420198 </i>
   </energy>
  </scstep>
  <scstep>
   <time name="diag">    0.14    0.14</time>
   <time name="diis">    0.34    0.34</time>
   <time name="orth">    0.01    0.01</time>
   <time name="total">    0.52    0.53</time>
   <energy>
    <i name="e_fr_energy">    -70.30283304 </i>
    <i name="e_wo_entrp">    -70.30283304 </i>
    <i name="e_0_energy">    -70.30283304 </i>
   </energy>
  </scstep>
  <scstep>
   <time name="diag">    0.14    0.14</time>
   <time name="diis">    0.35    0.36</time>
   <time name="orth">    0.01    0.01</time>
   <time name="total">    0.54    0.54</time>
   <energy>
    <i name="e_fr_energy">    -70.30285945 </i>
    <i name="e_wo_entrp">    -70.30285945 </i>
    <i name="e_0_energy">    -70.30285945 </i>
   </energy>
  </scstep>
  <scstep>
   <time name="diag">    0.14    0.14</time>
   <time name="diis">    0.34    0.34</time>
   <time name="orth">    0.01    0.01</time>
   <time name="total">    0.53    0.53</time>
   <energy>
    <i name="e_fr_energy">    -70.30291613 </i>
    <i name="e_wo_entrp">    -70.30291613 </i>
    <i name="e_0_energy">    -70.30291613 </i>
   </energy>
  </scstep>
  <scstep>
   <time name="diag">    0.14    0.14</time>
   <time name="diis">    0.33    0.34</time>
   <time name="orth">    0.01    0.01</time>
   <time name="total">    0.52    0.53</time>
   <energy>
    <i name="e_fr_energy">    -70.30297350 </i>
    <i name="e_wo_entrp">    -70.30297350 </i>
    <i name="e_0_energy">    -70.30297350 </i>
   </energy>
  </scstep>
  <scstep>
   <time name="diag">    0.14    0.15</time>
   <time name="diis">    0.29    0.29</time>
   <time name="orth">    0.01    0.01</time>
   <time name="total">    0.48    0.49</time>
   <energy>
    <i name="e_fr_energy">    -70.30300857 </i>
    <i name="e_wo_entrp">    -70.30300857 </i>
    <i name="e_0_energy">    -70.30300857 </i>
   </energy>
  </scstep>
  <scstep>
   <time name="diag">    0.14    0.14</time>
   <time name="diis">    0.24    0.24</time>
   <time name="orth">    0.01    0.01</time>
   <time name="total">    0.40    0.40</time>
   <energy>
    <i name="alphaZ">     60.59124573 </i>
    <i name="ewald">  -2461.56525245 </i>
    <i name="hartreedc">   -845.19180494 </i>
    <i name="XCdc">    185.39313887 </i>
    <i name="pawpsdc">   8255.26616904 </i>
    <i name="pawaedc">  -8306.15197287 </i>
    <i name="eentropy">      0.00000000 </i>
    <i name="bandstr">   -727.73236344 </i>
    <i name="atom">   3769.08782378 </i>
    <i name="e_fr_energy">    -70.30301629 </i>
    <i name="e_wo_entrp">    -70.30301629 </i>
    <i name="e_0_energy">    -70.30301629 </i>
   </energy>
  </scstep>
  <structure>
   <crystal>
    <varray name="basis" >
     <v>       5.23884858       3.00214450      -0.01803232 </v>
     <v>       0.01686797       5.87375724       1.73519399 </v>
     <v>       0.01886716      -0.13875203      10.55665136 </v>
    </varray>
    <i name="volume">    325.67341989 </i>
    <varray name="rec_basis" >
     <v>       0.19113617      -0.00044625      -0.00034747 </v>
     <v>      -0.09730635       0.16981748       0.00240592 </v>
     <v>       0.01632071      -0.02791362       0.09433095 </v>
    </varray>
   </crystal>
   <varray name="positions" >
    <v>       0.15092829       0.58722116       0.77947793 </v>
    <v>       0.16377929       0.77452117       0.38284214 </v>
    <v>       0.00173495       0.86892879       0.01946517 </v>
    <v>       0.67859723       0.53876376      -0.01642189 </v>
    <v>       0.53839794       0.04687889       0.59313876 </v>
    <v>       0.86253499       0.43320315       0.25736228 </v>
    <v>       0.46562661       0.10079209       0.14122932 </v>
    <v>       0.82104918       0.36052577       0.64145607 </v>
    <v>       0.59421635       0.81965916       0.32454118 </v>
    <v>       0.35943685       0.96132993       0.00443255 </v>
    <v>       0.15939573       0.44969820       0.14515909 </v>
    <v>       0.77277537       0.15968273       0.10449238 </v>
    <v>       0.89325919       0.98916148       0.68195916 </v>
    <v>       0.76813439       0.42647020       0.79266196 </v>
    <v>       0.49820341       0.63342015       0.52679936 </v>
    <v>       0.13848346       0.36201174       0.55670075 </v>
   </varray>
  </structure>
  <varray name="forces" >
   <v>       0.75933489      -1.12373539      -0.35721875 </v>
   <v>      -0.55614705      -0.43557040      -0.58251299 </v>
   <v>       0.64083484       0.23269071      -0.96287114 </v>
   <v>      -0.20352071       1.28646836      -0.11754202 </v>
   <v>      -0.24384778      -0.87670650      -0.42340688 </v>
   <v>      -0.63641813      -0.32701629       0.51611738 </v>
   <v>       0.37560380      -0.66936390      -0.59460099 </v>
   <v>       2.50789321      -0.76449704      -7.67026608 </v>
   <v>      -1.16719948       1.02869303      -1.19349233 </v>
   <v>       0.53931730       0.82110710       0.07658382 </v>
   <v>       0.46022428      -0.07165025      -0.40780867 </v>
   <v>      -0.29348576       0.02737070       1.27284921 </v>
   <v>       0.13842229      -0.37634039      -0.50108528 </v>
   <v>      -0.49326930       1.85127453       9.71501666 </v>
   <v>      -0.31594925      -0.88707206       0.74150272 </v>
   <v>      -1.51179317       0.28434781       0.48873535 </v>
  </varray>
  <varray name="stress" >
   <v>      -0.71059784     -16.05729763      -2.57286583 </v>
   <v>     -16.05729759      22.83994727     -23.22963352 </v>
   <v>      -2.57286601     -23.22963284      96.73268414 </v>
  </varray>
  <energy>
   <i name="e_fr_energy">    -70.30301629 </i>
   <i name="e_wo_entrp">    -70.30301629 </i>
   <i name="e_0_energy">      0.00000000 </i>
  </energy>
  <time name="totalsc">    4.66    4.80</time>
 </calculation>
 <calculation>
  <scstep>
   <time name="dav">    0.51    0.51</time>
   <time name="total">    0.55    0.56</time>
   <energy>
    <i name="alphaZ">     54.00947625 </i>
    <i name="ewald">  -2383.56945815 </i>
    <i name="hartreedc">   -799.42218905 </i>
    <i name="XCdc">    177.53074130 </i>
    <i name="pawpsdc">   8254.60012282 </i>
    <i name="pawaedc">  -8305.48820823 </i>
    <i name="eentropy">      0.00000000 </i>
    <i name="bandstr">   -835.43801854 </i>
    <i name="atom">   3769.08782378 </i>
    <i name="e_fr_energy">    -68.68970982 </i>
    <i name="e_wo_entrp">    -68.68970982 </i>
    <i name="e_0_energy">    -68.68970982 </i>
   </energy>
  </scstep>
  <scstep>
   <time name="diag">    0.14    0.14</time>
   <time name="diis">    0.29    0.29</time>
   <time name="orth">    0.01    0.01</time>
   <time name="total">    0.48    0.48</time>
   <energy>
    <i name="e_fr_energy">    -72.47799196 </i>
    <i name="e_wo_entrp">    -72.47799196 </i>
    <i name="e_0_energy">    -72.47799196 </i>
   </energy>
  </scstep>
  <scstep>
   <time name="diag">    0.14    0.14</time>
   <time name="diis">    0.34    0.35</time>
   <time name="orth">    0.01    0.01</time>
   <time name="total">    0.53    0.53</time>
   <energy>
    <i name="e_fr_energy">    -71.48458772 </i>
    <i name="e_wo_entrp">    -71.48458772 </i>
    <i name="e_0_energy">    -71.48458772 </i>
   </energy>
  </scstep>
  <scstep>
   <time name="diag">    0.14    0.14</time>
   <time name="diis">    0.28    0.29</time>
   <time name="orth">    0.01    0.01</time>
   <time name="total">    0.47    0.48</time>
   <energy>
    <i name="e_fr_energy">    -71.04940433 </i>
    <i name="e_wo_entrp">    -71.04940433 </i>
    <i name="e_0_energy">    -71.04940433 </i>
   </energy>
  </scstep>
  <scstep>
   <time name="diag">    0.14    0.14</time>
   <time name="diis">    0.31    0.31</time>
   <time name="orth">    0.01    0.01</time>
   <time name="total">    0.50    0.50</time>
   <energy>
    <i name="e_fr_energy">    -71.05264379 </i>
    <i name="e_wo_entrp">    -71.05264379 </i>
    <i name="e_0_energy">    -71.05264379 </i>
   </energy>
  </scstep>
  <scstep>
   <time name="diag">    0.14    0.14</time>
   <time name="diis">    0.35    0.35</time>
   <time name="orth">    0.01    0.01</time>
   <time name="total">    0.53    0.54</time>
   <energy>
    <i name="e_fr_energy">    -71.04381684 </i>
    <i name="e_wo_entrp">    -71.04381684 </i>
    <i name="e_0_energy">    -71.04381684 </i>
   </energy>
  </scstep>
  <scstep>
   <time name="diag">    0.14    0.14</time>
   <time name="diis">    0.36    0.37</time>
   <time name="orth">    0.01    0.01</time>
   <time name="total">    0.55    0.56</time>
   <energy>
    <i name="e_fr_energy">    -71.05142030 </i>
    <i name="e_wo_entrp">    -71.05142030 </i>
    <i name="e_0_energy">    -71.05142030 </i>
   </energy>
  </scstep>
  <scstep>
   <time name="diag">    0.14    0.14</time>
   <time name="diis">    0.36    0.36</time>
   <time name="orth">    0.01    0.01</time>
   <time name="total">    0.54    0.55</time>
   <energy>
    <i name="e_fr_energy">    -71.05621114 </i>
    <i name="e_wo_entrp">    -71.05621114 </i>
    <i name="e_0_energy">    -71.05621114 </i>
   </energy>
  </scstep>
  <scstep>
   <time name="diag">    0.14    0.14</time>
   <time name="diis">    0.36    0.36</time>
   <time name="orth">    0.01    0.01</time>
   <time name="total">    0.54    0.55</time>
   <energy>
    <i name="e_fr_energy">    -71.05873811 </i>
    <i name="e_wo_entrp">    -71.05873811 </i>
    <i name="e_0_energy">    -71.05873811 </i>
   </energy>
  </scstep>
  <scstep>
   <time name="diag">    0.14    0.14</time>
   <time name="diis">    0.35    0.35</time>
   <time name="orth">    0.01    0.01</time>
   <time name="total">    0.54    0.54</time>
   <energy>
    <i name="e_fr_energy">    -71.06044581 </i>
    <i name="e_wo_entrp">    -71.06044581 </i>
    <i name="e_0_energy">    -71.06044581 </i>
   </energy>
  </scstep>
  <scstep>
   <time name="diag">    0.14    0.14</time>
   <time name="diis">    0.34    0.35</time>
   <time name="orth">    0.01    0.01</time>
   <time name="total">    0.53    0.54</time>
   <energy>
    <i name="e_fr_energy">    -71.06137599 </i>
    <i name="e_wo_entrp">    -71.06137599 </i>
    <i name="e_0_energy">    -71.06137599 </i>
   </energy>
  </scstep>
  <scstep>
   <time name="diag">    0.14    0.14</time>
   <time name="diis">    0.35    0.35</time>
   <time name="orth">    0.01    0.01</time>
   <time name="total">    0.53    0.54</time>
   <energy>
    <i name="e_fr_energy">    -71.06203855 </i>
    <i name="e_wo_entrp">    -71.06203855 </i>
    <i name="e_0_energy">    -71.06203855 </i>
   </energy>
  </scstep>
  <scstep>
   <time name="diag">    0.14    0.14</time>
   <time name="diis">    0.35    0.35</time>
   <time name="orth">    0.01    0.01</time>
   <time name="total">    0.54    0.54</time>
   <energy>
    <i name="e_fr_energy">    -71.06241015 </i>
    <i name="e_wo_entrp">    -71.06241015 </i>
    <i name="e_0_energy">    -71.06241015 </i>
   </energy>
  </scstep>
  <scstep>
   <time name="diag">    0.14    0.14</time>
   <time name="diis">    0.35    0.35</time>
   <time name="orth">    0.01    0.01</time>
   <time name="total">    0.54    0.54</time>
   <energy>
    <i name="e_fr_energy">    -71.06266735 </i>
    <i name="e_wo_entrp">    -71.06266735 </i>
    <i name="e_0_energy">    -71.06266735 </i>
   </energy>
  </scstep>
  <scstep>
   <time name="diag">    0.14    0.14</time>
   <time name="diis">    0.34    0.34</time>
   <time name="orth">    0.01    0.01</time>
   <time name="total">    0.53    0.53</time>
   <energy>
    <i name="e_fr_energy">    -71.06282080 </i>
    <i name="e_wo_entrp">    -71.06282080 </i>
    <i name="e_0_energy">    -71.06282080 </i>
   </energy>
  </scstep>
  <scstep>
   <time name="diag">    0.14    0.14</time>
   <time name="diis">    0.32    0.32</time>
   <time name="orth">    0.01    0.01</time>
   <time name="total">    0.51    0.51</time>
   <energy>
    <i name="e_fr_energy">    -71.06292463 </i>
    <i name="e_wo_entrp">    -71.06292463 </i>
    <i name="e_0_energy">    -71.06292463 </i>
   </energy>
  </scstep>
  <scstep>
   <time name="diag">    0.14    0.14</time>
   <time name="diis">    0.31    0.31</time>
   <time name="orth">    0.01    0.01</time>
   <time name="total">    0.50    0.50</time>
   <energy>
    <i name="e_fr_energy">    -71.06298719 </i>
    <i name="e_wo_entrp">    -71.06298719 </i>
    <i name="e_0_energy">    -71.06298719 </i>
   </energy>
  </scstep>
  <scstep>
   <time name="diag">    0.14    0.14</time>
   <time name="diis">    0.29    0.30</time>
   <time name="orth">    0.01    0.01</time>
   <time name="total">    0.48    0.49</time>
   <energy>
    <i name="e_fr_energy">    -71.06302908 </i>
    <i name="e_wo_entrp">    -71.06302908 </i>
    <i name="e_0_energy">    -71.06302908 </i>
   </energy>
  </scstep>
  <scstep>
   <time name="diag">    0.14    0.14</time>
   <time name="diis">    0.26    0.27</time>
   <time name="orth">    0.01    0.01</time>
   <time name="total">    0.45    0.46</time>
   <energy>
    <i name="e_fr_energy">    -71.06305388 </i>
    <i name="e_wo_entrp">    -71.06305388 </i>
    <i name="e_0_energy">    -71.06305388 </i>
   </energy>
  </scstep>
  <scstep>
   <time name="diag">    0.14    0.14</time>
   <time name="diis">    0.24    0.25</time>
   <time name="orth">    0.01    0.01</time>
   <time name="total">    0.40    0.41</time>
   <energy>
    <i name="alphaZ">     54.00947625 </i>
    <i name="ewald">  -2383.56945815 </i>
    <i name="hartreedc">   -867.91377665 </i>
    <i name="XCdc">    181.94772421 </i>
    <i name="pawpsdc">   6790.15860232 </i>
    <i name="pawaedc">  -6841.24119712 </i>
    <i name="eentropy">      0.00000000 </i>
    <i name="bandstr">   -773.54226199 </i>
    <i name="atom">   3769.08782378 </i>
    <i name="e_fr_energy">    -71.06306736 </i>
    <i name="e_wo_entrp">    -71.06306736 </i>
    <i name="e_0_energy">    -71.06306736 </i>
   </energy>
  </scstep>
  <structure>
   <crystal>
    <varray name="basis" >
     <v>       5.29700699       3.03800571      -0.07817721 </v>
     <v>      -0.02918339       5.99000335       1.76145559 </v>
     <v>       0.01397071      -0.33803810      11.38127210 </v>
    </varray>
    <i name="volume">    365.36103629 </i>
    <varray name="rec_basis" >
     <v>       0.18822285       0.00097644      -0.00020205 </v>
     <v>      -0.09456384       0.16500876       0.00501705 </v>
     <v>       0.01592834      -0.02553135       0.08708577 </v>
    </varray>
   </crystal>
   <varray name="positions" >
    <v>       0.15894693       0.57301741       0.78048988 </v>
    <v>       0.14846880       0.77691468       0.37693012 </v>
    <v>       0.01115025       0.86351220       0.01414027 </v>
    <v>       0.67137061       0.55793749      -0.00936082 </v>
    <v>       0.52242551       0.04275822       0.58897247 </v>
    <v>       0.85485202       0.43337406       0.26007643 </v>
    <v>       0.46767094       0.09717278       0.13705484 </v>
    <v>       0.84334332       0.34169701       0.61504957 </v>
    <v>       0.58954091       0.83783759       0.31163981 </v>
    <v>       0.36482318       0.96449888       0.00344169 </v>
    <v>       0.16420307       0.44815679       0.14337661 </v>
    <v>       0.76749445       0.16379383       0.11274387 </v>
    <v>       0.90758049       0.98342137       0.68361497 </v>
    <v>       0.76897661       0.43805667       0.81849715 </v>
    <v>       0.50108197       0.61801314       0.54155722 </v>
    <v>       0.12462419       0.37210621       0.55707213 </v>
   </varray>
  </structure>
  <varray name="forces" >
   <v>       0.49040700      -0.88567574      -0.12318359 </v>
   <v>       0.05743365      -0.23982572      -0.34334792 </v>
   <v>      -0.01474643       0.63030689      -0.17236451 </v>
   <v>       0.10815044       0.43582651      -0.10041653 </v>
   <v>       0.45277169      -0.71467973       0.02620270 </v>
   <v>      -0.30880378       0.07452829      -0.02920863 </v>
   <v>      -0.12869442      -0.36203269       0.03844957 </v>
   <v>      -1.07208277      -0.70119419       3.83261307 </v>
   <v>      -0.88694192       0.14740692      -0.70400844 </v>
   <v>       0.66404132       1.10688844       0.92165459 </v>
   <v>       0.36780993      -0.63853067      -0.24665677 </v>
   <v>       0.00884195      -0.23441118       0.35398242 </v>
   <v>      -0.70781494       0.12550725      -0.75675815 </v>
   <v>       0.84775164       0.24108859      -1.75251674 </v>
   <v>      -0.47603860      -0.29592757      -0.25790786 </v>
   <v>       0.59791524       1.31072462      -0.68653321 </v>
  </varray>
  <varray name="stress" >
   <v>     -31.20084263      -2.11236903      -0.85232438 </v>
   <v>      -2.11236883     -25.80549033     -20.89151411 </v>
   <v>      -0.85232436     -20.89151410     -51.11777393 </v>
  </varray>
  <energy>
   <i name="e_fr_energy">    -71.06306736 </i>
   <i name="e_wo_entrp">    -71.06306736 </i>
   <i name="e_0_energy">      0.00000000 </i>
  </energy>
  <time name="totalsc">   10.84   11.03</time>
 </calculation>
 <calculation>
  <scstep>
   <time name="dav">    0.49    0.49</time>
   <time name="total">    0.53    0.53</time>
   <energy>
    <i name="alphaZ">     57.40378681 </i>
    <i name="ewald">  -2433.44474869 </i>
    <i name="hartreedc">   -887.57949169 </i>
    <i name="XCdc">    186.09446041 </i>
    <i name="pawpsdc">   6790.23529717 </i>
    <i name="pawaedc">  -6841.31830942 </i>
    <i name="eentropy">      0.00000000 </i>
    <i name="bandstr">   -712.70086797 </i>
    <i name="atom">   3769.08782378 </i>
    <i name="e_fr_energy">    -72.22204959 </i>
    <i name="e_wo_entrp">    -72.22204959 </i>
    <i name="e_0_energy">    -72.22204959 </i>
   </energy>
  </scstep>
  <scstep>
   <time name="diag">    0.14    0.14</time>
   <time name="diis">    0.29    0.29</time>
   <time name="orth">    0.01    0.01</time>
   <time name="total">    0.48    0.48</time>
   <energy>
    <i name="e_fr_energy">    -72.11869040 </i>
    <i name="e_wo_entrp">    -72.11869040 </i>
    <i name="e_0_energy">    -72.11869040 </i>
   </energy>
  </scstep>
  <scstep>
   <time name="diag">    0.14    0.14</time>
   <time name="diis">    0.34    0.34</time>
   <time name="orth">    0.01    0.01</time>
   <time name="total">    0.53    0.53</time>
   <energy>
    <i name="e_fr_energy">    -71.92321190 </i>
    <i name="e_wo_entrp">    -71.92321190 </i>
    <i name="e_0_energy">    -71.92321190 </i>
   </energy>
  </scstep>
  <scstep>
   <time name="diag">    0.14    0.14</time>
   <time name="diis">    0.34    0.34</time>
   <time name="orth">    0.01    0.01</time>
   <time name="total">    0.53    0.53</time>
   <energy>
    <i name="e_fr_energy">    -71.88429862 </i>
    <i name="e_wo_entrp">    -71.88429862 </i>
    <i name="e_0_energy">    -71.88429862 </i>
   </energy>
  </scstep>
  <scstep>
   <time name="diag">    0.14    0.14</time>
   <time name="diis">    0.34    0.34</time>
   <time name="orth">    0.01    0.01</time>
   <time name="total">    0.53    0.53</time>
   <energy>
    <i name="e_fr_energy">    -71.88117427 </i>
    <i name="e_wo_entrp">    -71.88117427 </i>
    <i name="e_0_energy">    -71.88117427 </i>
   </energy>
  </scstep>
  <scstep>
   <time name="diag">    0.14    0.14</time>
   <time name="diis">    0.36    0.37</time>
   <time name="orth">    0.01    0.01</time>
   <time name="total">    0.55    0.55</time>
   <energy>
    <i name="e_fr_energy">    -71.88514906 </i>
    <i name="e_wo_entrp">    -71.88514906 </i>
    <i name="e_0_energy">    -71.88514906 </i>
   </energy>
  </scstep>
  <scstep>
   <time name="diag">    0.14    0.14</time>
   <time name="diis">    0.37    0.37</time>
   <time name="orth">    0.01    0.01</time>
   <time name="total">    0.56    0.56</time>
   <energy>
    <i name="e_fr_energy">    -71.88833338 </i>
    <i name="e_wo_entrp">    -71.88833338 </i>
    <i name="e_0_energy">    -71.88833338 </i>
   </energy>
  </scstep>
  <scstep>
   <time name="diag">    0.14    0.14</time>
   <time name="diis">    0.36    0.36</time>
   <time name="orth">    0.01    0.01</time>
   <time name="total">    0.54    0.55</time>
   <energy>
    <i name="e_fr_energy">    -71.88994893 </i>
[...]
       <r>   -9.1512    1.0000 </r>
       <r>   -5.3560    1.0000 </r>
       <r>   -4.8450    1.0000 </r>
       <r>   -2.6317    1.0000 </r>
       <r>   -2.4945    1.0000 </r>
       <r>   -2.4089    1.0000 </r>
       <r>   -2.2351    1.0000 </r>
       <r>   -2.0253    1.0000 </r>
       <r>   -1.8363    1.0000 </r>
       <r>   -0.5082    1.0000 </r>
       <r>   -0.3625    1.0000 </r>
       <r>   -0.0267    1.0000 </r>
       <r>    0.1239    1.0000 </r>
       <r>    0.2945    1.0000 </r>
       <r>    0.5512    1.0000 </r>
       <r>    0.7130    1.0000 </r>
       <r>    0.8290    1.0000 </r>
       <r>    1.0759    1.0000 </r>
       <r>    1.2463    1.0000 </r>
       <r>    1.5082    1.0000 </r>
       <r>    1.6224    1.0000 </r>
       <r>    1.8696    1.0000 </r>
       <r>    2.1034    1.0000 </r>
       <r>    2.2557    1.0000 </r>
       <r>    2.4798    1.0000 </r>
       <r>    5.0617    0.0000 </r>
       <r>    5.7022    0.0000 </r>
       <r>    6.2664    0.0000 </r>
       <r>    6.4050    0.0000 </r>
       <r>    6.6526    0.0000 </r>
       <r>    6.7528    0.0000 </r>
       <r>    7.0979    0.0000 </r>
       <r>    7.2165    0.0000 </r>
       <r>    7.7060    0.0000 </r>
       <r>    8.0939    0.0000 </r>
      </set>
      <set comment="kpoint 14">
       <r>  -41.5787    1.0000 </r>
       <r>  -41.5494    1.0000 </r>
       <r>  -41.1970    1.0000 </r>
       <r>  -41.1830    1.0000 </r>
       <r>  -41.1762    1.0000 </r>
       <r>  -41.1148    1.0000 </r>
       <r>  -12.6794    1.0000 </r>
       <r>  -12.4556    1.0000 </r>
       <r>   -9.7613    1.0000 </r>
       <r>   -9.6839    1.0000 </r>
       <r>   -9.6431    1.0000 </r>
       <r>   -9.4866    1.0000 </r>
       <r>   -9.3220    1.0000 </r>
       <r>   -9.1426    1.0000 </r>
       <r>   -5.4954    1.0000 </r>
       <r>   -5.0075    1.0000 </r>
       <r>   -2.9979    1.0000 </r>
       <r>   -2.6033    1.0000 </r>
       <r>   -2.3325    1.0000 </r>
       <r>   -2.2305    1.0000 </r>
       <r>   -2.0625    1.0000 </r>
       <r>   -1.8548    1.0000 </r>
       <r>   -0.2365    1.0000 </r>
       <r>   -0.0231    1.0000 </r>
       <r>    0.0915    1.0000 </r>
       <r>    0.1610    1.0000 </r>
       <r>    0.3366    1.0000 </r>
       <r>    0.4427    1.0000 </r>
       <r>    0.7028    1.0000 </r>
       <r>    0.9461    1.0000 </r>
       <r>    1.0627    1.0000 </r>
       <r>    1.1171    1.0000 </r>
       <r>    1.3224    1.0000 </r>
       <r>    1.4669    1.0000 </r>
       <r>    1.9039    1.0000 </r>
       <r>    2.0059    1.0000 </r>
       <r>    2.2225    1.0000 </r>
       <r>    2.3913    1.0000 </r>
       <r>    5.4793    0.0000 </r>
       <r>    5.8343    0.0000 </r>
       <r>    6.4015    0.0000 </r>
       <r>    6.4416    0.0000 </r>
       <r>    6.6329    0.0000 </r>
       <r>    6.7824    0.0000 </r>
       <r>    6.8565    0.0000 </r>
       <r>    7.5478    0.0000 </r>
       <r>    7.6233    0.0000 </r>
       <r>    8.2024    0.0000 </r>
      </set>
     </set>
    </set>
   </array>
  </eigenvalues>
  <separator name="orbital magnetization" >
   <v name="MAGDIPOLOUT">      0.00000000      0.00000000      0.00000000</v>
  </separator>
  <dos>
   <i name="efermi">      2.61997688 </i>
   <total>
    <array>
     <dimension dim="1">gridpoints</dimension>
     <dimension dim="2">spin</dimension>
     <field>energy</field>
     <field>total</field>
     <field>integrated</field>
     <set>
      <set comment="spin 1">
       <r>   -44.0708     0.0000     0.0000 </r>
       <r>   -43.8880     0.0000     0.0000 </r>
       <r>   -43.7053     0.0000     0.0000 </r>
       <r>   -43.5225     0.0000     0.0000 </r>
       <r>   -43.3398     0.0000     0.0000 </r>
       <r>   -43.1571     0.0000     0.0000 </r>
       <r>   -42.9743     0.0000     0.0000 </r>
       <r>   -42.7916     0.0000     0.0000 </r>
       <r>   -42.6088     0.0000     0.0000 </r>
       <r>   -42.4261     0.0000     0.0000 </r>
       <r>   -42.2433     0.0000     0.0000 </r>
       <r>   -42.0606     0.0000     0.0000 </r>
       <r>   -41.8779     0.0000     0.0000 </r>
       <r>   -41.6951     0.0000     0.0000 </r>
       <r>   -41.5124     0.0000     4.0000 </r>
       <r>   -41.3296     0.0000     4.0000 </r>
       <r>   -41.1469     0.0000    10.0000 </r>
       <r>   -40.9641     0.0000    12.0000 </r>
       <r>   -40.7814     0.0000    12.0000 </r>
       <r>   -40.5987     0.0000    12.0000 </r>
       <r>   -40.4159     0.0000    12.0000 </r>
       <r>   -40.2332     0.0000    12.0000 </r>
       <r>   -40.0504     0.0000    12.0000 </r>
       <r>   -39.8677     0.0000    12.0000 </r>
       <r>   -39.6849     0.0000    12.0000 </r>
       <r>   -39.5022     0.0000    12.0000 </r>
       <r>   -39.3195     0.0000    12.0000 </r>
       <r>   -39.1367     0.0000    12.0000 </r>
       <r>   -38.9540     0.0000    12.0000 </r>
       <r>   -38.7712     0.0000    12.0000 </r>
       <r>   -38.5885     0.0000    12.0000 </r>
       <r>   -38.4057     0.0000    12.0000 </r>
       <r>   -38.2230     0.0000    12.0000 </r>
       <r>   -38.0403     0.0000    12.0000 </r>
       <r>   -37.8575     0.0000    12.0000 </r>
       <r>   -37.6748     0.0000    12.0000 </r>
       <r>   -37.4920     0.0000    12.0000 </r>
       <r>   -37.3093     0.0000    12.0000 </r>
       <r>   -37.1265     0.0000    12.0000 </r>
       <r>   -36.9438     0.0000    12.0000 </r>
       <r>   -36.7611     0.0000    12.0000 </r>
       <r>   -36.5783     0.0000    12.0000 </r>
       <r>   -36.3956     0.0000    12.0000 </r>
       <r>   -36.2128     0.0000    12.0000 </r>
       <r>   -36.0301     0.0000    12.0000 </r>
       <r>   -35.8473     0.0000    12.0000 </r>
       <r>   -35.6646     0.0000    12.0000 </r>
       <r>   -35.4819     0.0000    12.0000 </r>
       <r>   -35.2991     0.0000    12.0000 </r>
       <r>   -35.1164     0.0000    12.0000 </r>
       <r>   -34.9336     0.0000    12.0000 </r>
       <r>   -34.7509     0.0000    12.0000 </r>
       <r>   -34.5682     0.0000    12.0000 </r>
       <r>   -34.3854     0.0000    12.0000 </r>
       <r>   -34.2027     0.0000    12.0000 </r>
       <r>   -34.0199     0.0000    12.0000 </r>
       <r>   -33.8372     0.0000    12.0000 </r>
       <r>   -33.6544     0.0000    12.0000 </r>
       <r>   -33.4717     0.0000    12.0000 </r>
       <r>   -33.2890     0.0000    12.0000 </r>
       <r>   -33.1062     0.0000    12.0000 </r>
       <r>   -32.9235     0.0000    12.0000 </r>
       <r>   -32.7407     0.0000    12.0000 </r>
       <r>   -32.5580     0.0000    12.0000 </r>
       <r>   -32.3752     0.0000    12.0000 </r>
       <r>   -32.1925     0.0000    12.0000 </r>
       <r>   -32.0098     0.0000    12.0000 </r>
       <r>   -31.8270     0.0000    12.0000 </r>
       <r>   -31.6443     0.0000    12.0000 </r>
       <r>   -31.4615     0.0000    12.0000 </r>
       <r>   -31.2788     0.0000    12.0000 </r>
       <r>   -31.0960     0.0000    12.0000 </r>
       <r>   -30.9133     0.0000    12.0000 </r>
       <r>   -30.7306     0.0000    12.0000 </r>
       <r>   -30.5478     0.0000    12.0000 </r>
       <r>   -30.3651     0.0000    12.0000 </r>
       <r>   -30.1823     0.0000    12.0000 </r>
       <r>   -29.9996     0.0000    12.0000 </r>
       <r>   -29.8168     0.0000    12.0000 </r>
       <r>   -29.6341     0.0000    12.0000 </r>
       <r>   -29.4514     0.0000    12.0000 </r>
       <r>   -29.2686     0.0000    12.0000 </r>
       <r>   -29.0859     0.0000    12.0000 </r>
       <r>   -28.9031     0.0000    12.0000 </r>
       <r>   -28.7204     0.0000    12.0000 </r>
       <r>   -28.5376     0.0000    12.0000 </r>
       <r>   -28.3549     0.0000    12.0000 </r>
       <r>   -28.1722     0.0000    12.0000 </r>
       <r>   -27.9894     0.0000    12.0000 </r>
       <r>   -27.8067     0.0000    12.0000 </r>
       <r>   -27.6239     0.0000    12.0000 </r>
       <r>   -27.4412     0.0000    12.0000 </r>
       <r>   -27.2584     0.0000    12.0000 </r>
       <r>   -27.0757     0.0000    12.0000 </r>
       <r>   -26.8930     0.0000    12.0000 </r>
       <r>   -26.7102     0.0000    12.0000 </r>
       <r>   -26.5275     0.0000    12.0000 </r>
       <r>   -26.3447     0.0000    12.0000 </r>
       <r>   -26.1620     0.0000    12.0000 </r>
       <r>   -25.9792     0.0000    12.0000 </r>
       <r>   -25.7965     0.0000    12.0000 </r>
       <r>   -25.6138     0.0000    12.0000 </r>
       <r>   -25.4310     0.0000    12.0000 </r>
       <r>   -25.2483     0.0000    12.0000 </r>
       <r>   -25.0655     0.0000    12.0000 </r>
       <r>   -24.8828     0.0000    12.0000 </r>
       <r>   -24.7000     0.0000    12.0000 </r>
       <r>   -24.5173     0.0000    12.0000 </r>
       <r>   -24.3346     0.0000    12.0000 </r>
       <r>   -24.1518     0.0000    12.0000 </r>
       <r>   -23.9691     0.0000    12.0000 </r>
       <r>   -23.7863     0.0000    12.0000 </r>
       <r>   -23.6036     0.0000    12.0000 </r>
       <r>   -23.4208     0.0000    12.0000 </r>
       <r>   -23.2381     0.0000    12.0000 </r>
       <r>   -23.0554     0.0000    12.0000 </r>
       <r>   -22.8726     0.0000    12.0000 </r>
       <r>   -22.6899     0.0000    12.0000 </r>
       <r>   -22.5071     0.0000    12.0000 </r>
       <r>   -22.3244     0.0000    12.0000 </r>
       <r>   -22.1417     0.0000    12.0000 </r>
       <r>   -21.9589     0.0000    12.0000 </r>
       <r>   -21.7762     0.0000    12.0000 </r>
       <r>   -21.5934     0.0000    12.0000 </r>
       <r>   -21.4107     0.0000    12.0000 </r>
       <r>   -21.2279     0.0000    12.0000 </r>
       <r>   -21.0452     0.0000    12.0000 </r>
       <r>   -20.8625     0.0000    12.0000 </r>
       <r>   -20.6797     0.0000    12.0000 </r>
       <r>   -20.4970     0.0000    12.0000 </r>
       <r>   -20.3142     0.0000    12.0000 </r>
       <r>   -20.1315     0.0000    12.0000 </r>
       <r>   -19.9487     0.0000    12.0000 </r>
       <r>   -19.7660     0.0000    12.0000 </r>
       <r>   -19.5833     0.0000    12.0000 </r>
       <r>   -19.4005     0.0000    12.0000 </r>
       <r>   -19.2178     0.0000    12.0000 </r>
       <r>   -19.0350     0.0000    12.0000 </r>
       <r>   -18.8523     0.0000    12.0000 </r>
       <r>   -18.6695     0.0000    12.0000 </r>
       <r>   -18.4868     0.0000    12.0000 </r>
       <r>   -18.3041     0.0000    12.0000 </r>
       <r>   -18.1213     0.0000    12.0000 </r>
       <r>   -17.9386     0.0000    12.0000 </r>
       <r>   -17.7558     0.0000    12.0000 </r>
       <r>   -17.5731     0.0000    12.0000 </r>
       <r>   -17.3903     0.0000    12.0000 </r>
       <r>   -17.2076     0.0000    12.0000 </r>
       <r>   -17.0249     0.0000    12.0000 </r>
       <r>   -16.8421     0.0000    12.0000 </r>
       <r>   -16.6594     0.0000    12.0000 </r>
       <r>   -16.4766     0.0000    12.0000 </r>
       <r>   -16.2939     0.0000    12.0000 </r>
       <r>   -16.1111     0.0000    12.0000 </r>
       <r>   -15.9284     0.0000    12.0000 </r>
       <r>   -15.7457     0.0000    12.0000 </r>
       <r>   -15.5629     0.0000    12.0000 </r>
       <r>   -15.3802     0.0000    12.0000 </r>
       <r>   -15.1974     0.0000    12.0000 </r>
       <r>   -15.0147     0.0000    12.0000 </r>
       <r>   -14.8319     0.0000    12.0000 </r>
       <r>   -14.6492     0.0000    12.0000 </r>
       <r>   -14.4665     0.0000    12.0000 </r>
       <r>   -14.2837     0.0000    12.0000 </r>
       <r>   -14.1010     0.0000    12.0000 </r>
       <r>   -13.9182     0.0000    12.0000 </r>
       <r>   -13.7355     0.0000    12.0000 </r>
       <r>   -13.5527     0.0000    12.0000 </r>
       <r>   -13.3700     0.0000    12.0000 </r>
       <r>   -13.1873     0.0000    12.0000 </r>
       <r>   -13.0045     0.0000    12.0000 </r>
       <r>   -12.8218     0.0000    12.0000 </r>
       <r>   -12.6390    34.2830    13.6054 </r>
       <r>   -12.4563    31.5117    14.7382 </r>
       <r>   -12.2735     0.0000    16.0000 </r>
       <r>   -12.0908     0.0000    16.0000 </r>
       <r>   -11.9081     0.0000    16.0000 </r>
       <r>   -11.7253     0.0000    16.0000 </r>
       <r>   -11.5426     0.0000    16.0000 </r>
       <r>   -11.3598     0.0000    16.0000 </r>
       <r>   -11.1771     0.0000    16.0000 </r>
       <r>   -10.9944     0.0000    16.0000 </r>
       <r>   -10.8116     0.0000    16.0000 </r>
       <r>   -10.6289     0.0000    16.0000 </r>
       <r>   -10.4461     0.0000    16.0000 </r>
       <r>   -10.2634     0.0000    16.0000 </r>
       <r>   -10.0806     0.0000    16.0000 </r>
       <r>    -9.8979    71.7948    16.1356 </r>
       <r>    -9.7152    21.8468    19.2359 </r>
       <r>    -9.5324     9.9303    21.9698 </r>
       <r>    -9.3497     0.5885    23.9926 </r>
       <r>    -9.1669    11.8362    26.4643 </r>
       <r>    -8.9842     0.0000    28.0000 </r>
       <r>    -8.8014     0.0000    28.0000 </r>
       <r>    -8.6187     0.0000    28.0000 </r>
       <r>    -8.4360     0.0000    28.0000 </r>
       <r>    -8.2532     0.0000    28.0000 </r>
       <r>    -8.0705     0.0000    28.0000 </r>
       <r>    -7.8877     0.0000    28.0000 </r>
       <r>    -7.7050     0.0000    28.0000 </r>
       <r>    -7.5222     0.0000    28.0000 </r>
       <r>    -7.3395     0.0000    28.0000 </r>
       <r>    -7.1568     0.0000    28.0000 </r>
       <r>    -6.9740     0.0000    28.0000 </r>
       <r>    -6.7913     0.0000    28.0000 </r>
       <r>    -6.6085     0.0000    28.0000 </r>
       <r>    -6.4258     0.0000    28.0000 </r>
       <r>    -6.2430     0.0000    28.0000 </r>
       <r>    -6.0603     0.0000    28.0000 </r>
       <r>    -5.8776     0.0000    28.0000 </r>
       <r>    -5.6948     1.1046    28.0495 </r>
       <r>    -5.5121     8.4768    28.7193 </r>
       <r>    -5.3293     0.4272    30.0018 </r>
       <r>    -5.1466     2.4175    30.2184 </r>
       <r>    -4.9638    10.7545    31.2158 </r>
       <r>    -4.7811     0.0000    32.0000 </r>
       <r>    -4.5984     0.0000    32.0000 </r>
       <r>    -4.4156     0.0000    32.0000 </r>
       <r>    -4.2329     0.0000    32.0000 </r>
       <r>    -4.0501     0.0000    32.0000 </r>
       <r>    -3.8674     0.0000    32.0000 </r>
       <r>    -3.6846     0.0000    32.0000 </r>
       <r>    -3.5019     0.0000    32.0000 </r>
       <r>    -3.3192     0.0000    32.0000 </r>
       <r>    -3.1364     0.0000    32.0000 </r>
       <r>    -2.9537     4.7783    32.1802 </r>
       <r>    -2.7709     7.2660    33.0675 </r>
       <r>    -2.5882    10.3305    34.8349 </r>
       <r>    -2.4054    20.2950    37.0747 </r>
       <r>    -2.2227    14.2275    39.3472 </r>
       <r>    -2.0400    20.0052    41.7052 </r>
       <r>    -1.8572    13.1265    42.6621 </r>
       <r>    -1.6745     0.0000    44.0000 </r>
       <r>    -1.4917     0.0000    44.0000 </r>
       <r>    -1.3090     0.0000    44.0000 </r>
       <r>    -1.1262     0.0000    44.0000 </r>
       <r>    -0.9435     0.0000    44.0000 </r>
       <r>    -0.7608     0.0000    44.0000 </r>
       <r>    -0.5780     4.2221    44.1635 </r>
       <r>    -0.3953     7.5055    45.4101 </r>
       <r>    -0.2125     7.0838    46.9068 </r>
       <r>    -0.0298     8.6487    48.5628 </r>
       <r>     0.1530    20.0515    50.2924 </r>
       <r>     0.3357    25.5930    52.8191 </r>
       <r>     0.5184    10.7626    55.0914 </r>
       <r>     0.7012    39.8836    57.0181 </r>
       <r>     0.8839    24.9445    58.7562 </r>
       <r>     1.0667     9.3962    60.3764 </r>
       <r>     1.2494    15.6696    62.6288 </r>
       <r>     1.4321    12.5767    64.8457 </r>
       <r>     1.6149    12.4286    67.1320 </r>
       <r>     1.7976    17.9484    69.0249 </r>
       <r>     1.9804    16.2059    70.4471 </r>
       <r>     2.1631     2.5732    72.0070 </r>
       <r>     2.3459     8.8120    73.8529 </r>
       <r>     2.5286    12.2115    75.7895 </r>
       <r>     2.7113     0.0000    76.0000 </r>
       <r>     2.8941     0.0000    76.0000 </r>
       <r>     3.0768     0.0000    76.0000 </r>
       <r>     3.2596     0.0000    76.0000 </r>
       <r>     3.4423     0.0000    76.0000 </r>
       <r>     3.6251     0.0000    76.0000 </r>
       <r>     3.8078     0.0000    76.0000 </r>
       <r>     3.9905     0.0000    76.0000 </r>
       <r>     4.1733     0.0000    76.0000 </r>
       <r>     4.3560     0.0000    76.0000 </r>
       <r>     4.5388     0.0000    76.0000 </r>
       <r>     4.7215     0.0000    76.0000 </r>
       <r>     4.9043     0.0000    76.0000 </r>
       <r>     5.0870     0.4255    76.0037 </r>
       <r>     5.2697     4.3056    76.6566 </r>
       <r>     5.4525     6.3210    77.5990 </r>
       <r>     5.6352     1.9565    78.0552 </r>
       <r>     5.8180     8.6106    79.3503 </r>
       <r>     6.0007     0.0000    80.0000 </r>
       <r>     6.1835     6.5831    80.3794 </r>
       <r>     6.3662     7.6222    81.9572 </r>
       <r>     6.5489     1.6754    83.9436 </r>
       <r>     6.7317     8.1596    85.7150 </r>
       <r>     6.9144     7.7829    87.6399 </r>
       <r>     7.0972    15.8660    89.1156 </r>
       <r>     7.2799     7.4462    90.3623 </r>
       <r>     7.4627     3.5441    91.9003 </r>
       <r>     7.6454    18.2086    93.2531 </r>
       <r>     7.8281     0.0000    94.0000 </r>
       <r>     8.0109     3.7888    94.0795 </r>
       <r>     8.1936     2.8823    95.9459 </r>
       <r>     8.3764     0.0000    96.0000 </r>
       <r>     8.5591     0.0000    96.0000 </r>
       <r>     8.7419     0.0000    96.0000 </r>
       <r>     8.9246     0.0000    96.0000 </r>
       <r>     9.1073     0.0000    96.0000 </r>
       <r>     9.2901     0.0000    96.0000 </r>
       <r>     9.4728     0.0000    96.0000 </r>
       <r>     9.6556     0.0000    96.0000 </r>
       <r>     9.8383     0.0000    96.0000 </r>
       <r>    10.0211     0.0000    96.0000 </r>
       <r>    10.2038     0.0000    96.0000 </r>
       <r>    10.3865     0.0000    96.0000 </r>
       <r>    10.5693     0.0000    96.0000 </r>
       <r>    10.7520     0.0000    96.0000 </r>
      </set>
     </set>
    </array>
   </total>
  </dos>
 </calculation>
 <structure name="finalpos" >
  <crystal>
   <varray name="basis" >
    <v>       5.13468628       3.11370432      -0.08213447 </v>
    <v>       0.15344482       5.80507024       1.43348552 </v>
    <v>       0.02679005      -0.56841915       9.87108854 </v>
   </varray>
   <i name="volume">    293.83678876 </i>
   <varray name="rec_basis" >
    <v>       0.19778729      -0.00502410      -0.00082610 </v>
    <v>      -0.10444221       0.17250101       0.01021680 </v>
    <v>       0.01681289      -0.02509251       0.09981539 </v>
   </varray>
  </crystal>
  <varray name="positions" >
   <v>       0.21404825       0.44044016       0.73543243 </v>
   <v>       0.19306377       0.76406891       0.30813565 </v>
   <v>      -0.06673095       0.96384698      -0.04922037 </v>
   <v>       0.72050411       0.59088361       0.01661915 </v>
   <v>       0.51249234      -0.07426929       0.55795956 </v>
   <v>       0.87294040       0.46932324       0.31232580 </v>
   <v>       0.47856444       0.17862285       0.15008056 </v>
   <v>       0.80253751       0.28601721       0.65408077 </v>
   <v>       0.49954705       0.90177140       0.31160525 </v>
   <v>       0.49200104       0.07014931      -0.03230841 </v>
   <v>       0.13306013       0.54551331       0.13903054 </v>
   <v>       0.80095081       0.20531054       0.18751441 </v>
   <v>       0.84154998       0.92043691       0.70944131 </v>
   <v>       0.87145954       0.37556247       0.83325941 </v>
   <v>       0.42751024       0.57100775       0.55881780 </v>
   <v>       0.07305459       0.30358299       0.54252237 </v>
  </varray>
 </structure>
</modeling>
