unknown system                          
           1
     5.043098    2.902280    0.012116
     0.000000    5.723997    1.712750
     0.000000    0.000000    9.962395
   Li   P    S 
   6   2   8
Direct configuration=     1
   0.14615230  0.59474625  0.77776775
   0.19301277  0.76493512  0.39346423
   0.99062403  0.87984632  0.02420626
   0.69303335  0.51753589  0.95663251
   0.57640210  0.04254476  0.60259759
   0.86923900  0.43371081  0.25529134
   0.46846869  0.09273291  0.14956120
   0.81651444  0.36629603  0.63600857
   0.58106259  0.80294973  0.34245952
   0.35677716  0.96262645  0.00648438
   0.15656981  0.44718211  0.14679364
   0.78034472  0.15378502  0.09464376
   0.85753614  0.99629029  0.67305971
   0.75495134  0.43675805  0.82427845
   0.48337811  0.66275853  0.49475118
   0.14248667  0.35757005  0.55729614
unknown system                          
           1
     5.497714    3.134207   -0.057901
     0.039175    6.071804    1.764875
     0.043818   -0.322241   11.342510
   Li   P    S 
   6   2   8
Direct configuration=     2
   0.15626503  0.57867330  0.78115680
   0.13174928  0.78409105  0.37208985
   0.01419300  0.85570921  0.01481486
   0.66191444  0.56670133  0.01021761
   0.49682100  0.05032291  0.58338606
   0.85515551  0.43277184  0.25932500
   0.46252034  0.10919092  0.13303606
   0.82602367  0.35448207  0.64683993
   0.60867214  0.83724131  0.30714172
   0.36241266  0.95959755  0.00242519
   0.16248013  0.45248507  0.14359978
   0.76419585  0.16768391  0.11418569
   0.93239345  0.98234625  0.69110763
   0.78333740  0.41076924  0.76149026
   0.51439181  0.60311058  0.55837484
   0.13402752  0.36709182  0.55610495
unknown system                          
           1
     5.246886    3.006245   -0.019270
     0.017561    5.879907    1.736116
     0.019642   -0.144449   10.581052
   Li   P    S 
   6   2   8
Direct configuration=     3
   0.15110085  0.58694592  0.77953403
   0.16273847  0.77483962  0.38248577
   0.00213745  0.86850942  0.01930977
   0.67806217  0.53963379 -0.01553353
   0.53704636  0.04700139  0.59281704
   0.86229547  0.43318817  0.25742848
   0.46552563  0.10106836  0.14095570
   0.82121077  0.36032721  0.64163563
   0.59468579  0.82023598  0.32395816
   0.35953305  0.96127615  0.00436542
   0.15949606  0.44978846  0.14510659
   0.77249890  0.15993033  0.10481601
   0.89453093  0.98893196  0.68226118
   0.76862226  0.42599562  0.79162170
   0.49872985  0.63242091  0.52785331
   0.13833923  0.36217505  0.55668094
unknown system                          
           1
     5.238849    3.002145   -0.018032
     0.016868    5.873757    1.735194
     0.018867   -0.138752   10.556651
   Li   P    S 
   6   2   8
Direct configuration=     4
   0.15092829  0.58722116  0.77947793
   0.16377929  0.77452117  0.38284214
   0.00173495  0.86892879  0.01946517
   0.67859723  0.53876376 -0.01642189
   0.53839794  0.04687889  0.59313876
   0.86253499  0.43320315  0.25736228
   0.46562661  0.10079209  0.14122932
   0.82104918  0.36052577  0.64145607
   0.59421635  0.81965916  0.32454118
   0.35943685  0.96132993  0.00443255
   0.15939573  0.44969820  0.14515909
   0.77277537  0.15968273  0.10449238
   0.89325919  0.98916148  0.68195916
   0.76813439  0.42647020  0.79266196
   0.49820341  0.63342015  0.52679936
   0.13848346  0.36201174  0.55670075
unknown system                          
           1
     5.297007    3.038006   -0.078177
    -0.029183    5.990003    1.761456
     0.013971   -0.338038   11.381272
   Li   P    S 
   6   2   8
Direct configuration=     5
   0.15894693  0.57301741  0.78048988
   0.14846880  0.77691468  0.37693012
   0.01115025  0.86351220  0.01414027
   0.67137061  0.55793749 -0.00936082
   0.52242551  0.04275822  0.58897247
   0.85485202  0.43337406  0.26007643
   0.46767094  0.09717278  0.13705484
   0.84334332  0.34169701  0.61504957
   0.58954091  0.83783759  0.31163981
   0.36482318  0.96449888  0.00344169
   0.16420307  0.44815679  0.14337661
   0.76749445  0.16379383  0.11274387
   0.90758049  0.98342137  0.68361497
   0.76897661  0.43805667  0.81849715
   0.50108197  0.61801314  0.54155722
   0.12462419  0.37210621  0.55707213
unknown system                          
           1
     5.265728    3.018718   -0.045829
    -0.004416    5.927483    1.747331
     0.016604   -0.230856   10.937766
   Li   P    S 
   6   2   8
Direct configuration=     6
   0.15474637  0.58046091  0.77997570
   0.15660577  0.77574682  0.37990673
   0.00617070  0.86643804  0.01676180
   0.67512143  0.54776149 -0.01286100
   0.53094336  0.04498437  0.59108912
   0.85893607  0.43324255  0.25875029
   0.46660307  0.09913691  0.13912453
   0.83158959  0.35198708  0.62811237
   0.59195307  0.82848805  0.31804481
   0.36194419  0.96285027  0.00391611
   0.16165429  0.44899360  0.14424929
   0.77027884  0.16150924  0.10865863
   0.89998803  0.98641121  0.68275694
   0.76845745  0.43157966  0.80565848
   0.49961156  0.62587905  0.53423339
   0.13194944  0.36679909  0.55691902
unknown system                          
           1
     5.205690    2.988325   -0.080983
    -0.038736    5.906068    1.658921
     0.044288   -0.403972   10.974180
   Li   P    S 
   6   2   8
Direct configuration=     7
   0.16031705  0.56978257  0.78058292
   0.15329973  0.77445913  0.37793200
   0.00924960  0.86797139  0.01383724
   0.67373858  0.55606509 -0.01318127
   0.52988882  0.03864861  0.59085696
   0.85461500  0.43425162  0.25981463
   0.46798223  0.09412909  0.13848957
   0.83844541  0.34826795  0.63312265
   0.58363051  0.83847813  0.31177145
   0.36735209  0.96730973  0.00492202
   0.16521998  0.44492649  0.14352953
   0.76864040  0.16177745  0.11254334
   0.89957038  0.98531402  0.68093057
   0.77503885  0.43277410  0.80752460
   0.49490756  0.62348224  0.53666356
   0.12465703  0.37463074  0.55595644
unknown system                          
           1
     5.151604    2.960946   -0.112651
    -0.069653    5.886776    1.579276
     0.069227   -0.559925   11.006983
   Li   P    S 
   6   2   8
Direct configuration=     8
   0.16532758  0.56016947  0.78106566
   0.15028856  0.77324374  0.37614820
   0.01207740  0.86927023  0.01124425
   0.67252881  0.56354343 -0.01341198
   0.52889167  0.03292993  0.59060081
   0.85067870  0.43519318  0.26075988
   0.46921236  0.08959540  0.13789039
   0.84464803  0.34505316  0.63759371
   0.57613397  0.84731202  0.30621235
   0.37230155  0.97135675  0.00586924
   0.16844843  0.44123771  0.14286794
   0.76713146  0.16212946  0.11601159
   0.89919161  0.98427342  0.67928942
   0.78103453  0.43390103  0.80922059
   0.49059610  0.62139157  0.53880365
   0.11806248  0.38166783  0.55513051
unknown system                          
           1
     5.082509    2.952812   -0.136797
    -0.070770    5.858453    1.504563
     0.099312   -0.701417   11.024996
   Li   P    S 
   6   2   8
Direct configuration=     9
   0.17163583  0.54744338  0.78054929
   0.14737646  0.77079444  0.37353616
   0.01580330  0.87169332  0.00822107
   0.67370148  0.56926560 -0.01301419
   0.52609016  0.02393677  0.58983136
   0.84556340  0.43625984  0.26183106
   0.47051647  0.09395099  0.14125342
   0.83404819  0.35022624  0.64400559
   0.56685127  0.85130623  0.30436430
   0.37482858  0.97121605 -0.00059843
   0.16707501  0.44174730  0.14181269
   0.77130443  0.16475375  0.11946310
   0.90031750  0.98032510  0.67735930
   0.79324614  0.43461531  0.80988594
   0.49209889  0.61430302  0.54295450
   0.11609614  0.39043101  0.55384106
unknown system                          
           1
     5.063969    2.950630   -0.143275
    -0.071070    5.850853    1.484516
     0.107384   -0.739383   11.029830
   Li   P    S 
   6   2   8
Direct configuration=    10
   0.17335141  0.54399785  0.78039602
   0.14658826  0.77011917  0.37283266
   0.01682104  0.87232070  0.00742114
   0.67402006  0.57081060 -0.01289780
   0.52532902  0.02150887  0.58960914
   0.84417085  0.43656207  0.26211451
   0.47086639  0.09514803  0.14215915
   0.83115658  0.35168139  0.64571667
   0.56432986  0.85238335  0.30386993
   0.37552523  0.97112910 -0.00232285
   0.16670309  0.44187920  0.14153074
   0.77243429  0.16548045  0.12039198
   0.90062631  0.97924475  0.67683867
   0.79656598  0.43479621  0.81007465
   0.49250114  0.61241782  0.54405213
   0.11556372  0.39278879  0.55350948
unknown system                          
           1
     5.013881    2.907431   -0.155247
    -0.092326    5.794335    1.432574
     0.129532   -0.815897   10.973141
   Li   P    S 
   6   2   8
Direct configuration=    11
   0.17997534  0.53034550  0.77832829
   0.14419185  0.76643639  0.37024640
   0.02077808  0.87547604  0.00435232
   0.67885260  0.57167980 -0.01172997
   0.52026761  0.01099382  0.58834878
   0.83931869  0.43697304  0.26342879
   0.46972116  0.09890355  0.14116753
   0.82805606  0.35067275  0.64620947
   0.55543866  0.85033768  0.30693360
   0.37988755  0.97379642 -0.00861070
   0.15541224  0.45289428  0.14051362
   0.78232998  0.16850034  0.12396487
   0.90305767  0.97625542  0.67498088
   0.81101830  0.43822076  0.81557709
   0.48741684  0.61151041  0.54597963
   0.11083060  0.39927214  0.55560561
unknown system                          
           1
     4.954758    2.856440   -0.169379
    -0.117415    5.727621    1.371263
     0.155674   -0.906213   10.906226
   Li   P    S 
   6   2   8
Direct configuration=    12
   0.18781346  0.51408118  0.77582700
   0.14132904  0.76199870  0.36716555
   0.02552688  0.87918570  0.00073701
   0.68461255  0.57275040 -0.01033833
   0.51418638 -0.00155746  0.58680484
   0.83352952  0.43747185  0.26498154
   0.46837977  0.10335063  0.14000881
   0.82435208  0.34947230  0.64678520
   0.54481302  0.84793349  0.31054248
   0.38513304  0.97686677 -0.01603901
   0.14201217  0.46594890  0.13934594
   0.79412515  0.17219019  0.12821892
   0.90595041  0.97267102  0.67277070
   0.82823836  0.44244177  0.82212229
   0.48134118  0.61045110  0.54825235
   0.10521023  0.40701179  0.55811093
unknown system                          
           1
     4.925858    2.807076   -0.181766
    -0.129027    5.641588    1.330231
     0.119754   -0.895907   10.589294
   Li   P    S 
   6   2   8
Direct configuration=    13
   0.19680174  0.49949494  0.77201423
   0.13843882  0.75742737  0.36371579
   0.02848461  0.88423802 -0.00292144
   0.69326646  0.56863958 -0.00664240
   0.50713860 -0.01250051  0.58524650
   0.82870098  0.43729390  0.26733733
   0.46630539  0.10469494  0.13956883
   0.82948190  0.34532447  0.64949050
   0.53090742  0.85385739  0.31023754
   0.39319643  0.98579586 -0.01985882
   0.13383844  0.47611522  0.13864255
   0.79916990  0.17253471  0.13310648
   0.90654916  0.97049480  0.67083548
   0.84259314  0.44407430  0.82299432
   0.46934569  0.61516600  0.54908264
   0.10233458  0.40961735  0.56244668
unknown system                          
           1
     4.922759    2.801783   -0.183094
    -0.130272    5.632362    1.325831
     0.115901   -0.894801   10.555307
   Li   P    S 
   6   2   8
Direct configuration=    14
   0.19776453  0.49791423  0.77159025
   0.13812329  0.75692848  0.36333351
   0.02880257  0.88478951 -0.00332424
   0.69420146  0.56819777 -0.00623458
   0.50637404 -0.01369510  0.58507146
   0.82818168  0.43727143  0.26759723
   0.46608168  0.10483986  0.13952041
   0.83003602  0.34487646  0.64978868
   0.52940876  0.85449300  0.31020440
   0.39406619  0.98677221 -0.02027826
   0.13295908  0.47721586  0.13856670
   0.79971766  0.17257518  0.13364675
   0.90661177  0.97025855  0.67062125
   0.84414283  0.44426083  0.82309185
   0.46805355  0.61567127  0.54917474
   0.10202815  0.40989880  0.56292604
unknown system                          
           1
     4.956002    2.851218   -0.205474
    -0.092534    5.654026    1.336938
     0.021399   -0.838643   10.384562
   Li   P    S 
   6   2   8
Direct configuration=    15
   0.20770811  0.48967158  0.76796633
   0.13547949  0.75384892  0.35991751
   0.02920864  0.89021224 -0.00648208
   0.70112145  0.56303836 -0.00130596
   0.50128936 -0.01810787  0.58407613
   0.82576165  0.43765705  0.27106581
   0.46422144  0.11111314  0.14112551
   0.82547737  0.34667739  0.64973222
   0.51823858  0.86224775  0.30900405
   0.40098544  0.99310994 -0.02429247
   0.13436903  0.48078345  0.13867832
   0.79641336  0.16869052  0.13755439
   0.90454649  0.96560531  0.66990587
   0.84924290  0.44469194  0.82310372
   0.46480731  0.61494958  0.55154397
   0.10768260  0.40807902  0.56370290
unknown system                          
           1
     4.984703    2.893899   -0.224796
    -0.059953    5.672730    1.346528
    -0.060192   -0.790158   10.237145
   Li   P    S 
   6   2   8
Direct configuration=    16
   0.21623035  0.48256590  0.76480959
   0.13317762  0.75125059  0.35690950
   0.02947029  0.89493664 -0.00926479
   0.70716865  0.55848488  0.00305106
   0.49694226 -0.02188128  0.58319343
   0.82373990  0.43795066  0.27411125
   0.46261096  0.11651335  0.14252680
   0.82155564  0.34825215  0.64967024
   0.50858995  0.86900636  0.30791447
   0.40681223  0.99860878 -0.02781457
   0.13555641  0.48385549  0.13877604
   0.79366850  0.16529541  0.14098848
   0.90279458  0.96160751  0.66927661
   0.85361352  0.44504228  0.82312541
   0.46206665  0.61430654  0.55362153
   0.11255571  0.40647306  0.56440115
unknown system                          
           1
     5.034950    2.944977   -0.230015
    -0.027768    5.715140    1.361862
    -0.102581   -0.755179   10.178146
   Li   P    S 
   6   2   8
Direct configuration=    17
   0.22559836  0.47661201  0.76257270
   0.13064439  0.74880112  0.35359548
   0.02911817  0.90090652 -0.01261887
   0.71246664  0.55477578  0.00741732
   0.49362892 -0.02345330  0.58261330
   0.82311360  0.43858113  0.27804314
   0.45897096  0.12448973  0.14032874
   0.82548163  0.34287488  0.64830670
   0.50113237  0.87135568  0.30954926
   0.41361928  0.00282501 -0.03053409
   0.13652836  0.48788914  0.13916528
   0.79177829  0.16066840  0.14508445
   0.89885823  0.96227164  0.66871574
   0.85604257  0.44635483  0.82489650
   0.45588532  0.61495712  0.55460623
   0.11368616  0.40235865  0.56355432
unknown system                          
           1
     5.090479    3.001426   -0.235782
     0.007800    5.762009    1.378808
    -0.149427   -0.716521   10.112943
   Li   P    S 
   6   2   8
Direct configuration=    18
   0.23586927  0.47004548  0.76009788
   0.12785900  0.74615090  0.34990715
   0.02865888  0.90751289 -0.01635998
   0.71833068  0.55062642  0.01228673
   0.49000950 -0.02516359  0.58196655
   0.82246087  0.43923599  0.28241872
   0.45491098  0.13330536  0.13786922
   0.82980250  0.33695586  0.64679868
   0.49297165  0.87395415  0.31135980
   0.42101132  0.00746568 -0.03356056
   0.13756674  0.49231989  0.13959457
   0.78978166  0.15554111  0.14964787
   0.89454145  0.96302444  0.66808721
   0.85870753  0.44777064  0.82686856
   0.44912692  0.61568786  0.55569626
   0.11494429  0.39783527  0.56261754
unknown system                          
           1
     5.112342    3.023728   -0.220484
     0.029845    5.775358    1.389480
    -0.148287   -0.679921   10.028931
   Li   P    S 
   6   2   8
Direct configuration=    19
   0.24416979  0.46588962  0.75939317
   0.12606109  0.74407154  0.34663738
   0.02741983  0.91472243 -0.01996773
   0.72199519  0.54867142  0.01602478
   0.48877000 -0.02566013  0.58152070
   0.82335673  0.43981073  0.28695459
   0.45217808  0.13330828  0.13726622
   0.83289410  0.33514663  0.64664853
   0.48704470  0.87735163  0.31116329
   0.42818923  0.00957925 -0.03511804
   0.13578474  0.49904303  0.13950448
   0.79098941  0.15198977  0.15400159
   0.89032562  0.96627256  0.66815767
   0.85942961  0.44778561  0.82560759
   0.44819632  0.61178875  0.55761838
   0.10974880  0.39249724  0.55988362
unknown system                          
           1
     5.148852    3.060969   -0.194937
     0.066657    5.797649    1.407301
    -0.146384   -0.618802    9.888641
   Li   P    S 
   6   2   8
Direct configuration=    20
   0.25800092  0.45893279  0.75819449
   0.12308645  0.74063415  0.34113560
   0.02530694  0.92679496 -0.02605793
   0.72810271  0.54536344  0.02231901
   0.48671266 -0.02648155  0.58077319
   0.82484265  0.44072749  0.29459476
   0.44763406  0.13332656  0.13625640
   0.83804753  0.33211817  0.64639186
   0.47716543  0.88304325  0.31083930
   0.44010824  0.01310061 -0.03776300
   0.13277306  0.51027394  0.13934400
   0.79302380  0.14601842  0.16134195
   0.88329250  0.97170738  0.66827992
   0.86062993  0.44781964  0.82348105
   0.44667755  0.60526460  0.56086685
   0.10114879  0.38362450  0.55529877
unknown system                          
           1
     5.143679    3.077903   -0.174985
     0.086474    5.805268    1.404469
    -0.117050   -0.610692    9.828534
   Li   P    S 
   6   2   8
Direct configuration=    21
   0.26626778  0.45534905  0.75736659
   0.12267536  0.73795122  0.33767483
   0.02263165  0.93692921 -0.03075980
   0.73201586  0.54360216  0.02603981
   0.48721622 -0.02808723  0.58011766
   0.82734375  0.44058526  0.30095979
   0.44736940  0.13612351  0.13826100
   0.83057043  0.33475543  0.64662021
   0.47042348  0.88513925  0.31059980
   0.44768915  0.01362869 -0.04123230
   0.13166568  0.51582537  0.13815907
   0.79285478  0.14392452  0.16632488
   0.88079295  0.97131822  0.67011986
   0.86188066  0.44773986  0.82311727
   0.44883735  0.59859243  0.56342622
   0.09631875  0.37889138  0.54850132
unknown system                          
           1
     5.138942    3.093408   -0.156716
     0.104619    5.812244    1.401877
    -0.090190   -0.603267    9.773497
   Li   P    S 
   6   2   8
Direct configuration=    22
   0.27386197  0.45203612  0.75659254
   0.12232583  0.73548725  0.33448822
   0.02016782  0.94621495 -0.03508486
   0.73558971  0.54198269  0.02946061
   0.48768682 -0.02956153  0.57951315
   0.82960402  0.44045933  0.30681766
   0.44710662  0.13869129  0.14010761
   0.82370654  0.33719726  0.64684099
   0.46423774  0.88708175  0.31038870
   0.45465363  0.01408053 -0.04443736
   0.13063713  0.52091357  0.13706999
   0.79268167  0.14201634  0.17091349
   0.87849383  0.97097359  0.67181758
   0.86302921  0.44766189  0.82278056
   0.45082743  0.59247652  0.56577940
   0.09194327  0.37455678  0.54224793
unknown system                          
           1
     5.138528    3.082073   -0.126607
     0.103276    5.805656    1.379113
    -0.020150   -0.625712    9.705551
   Li   P    S 
   6   2   8
Direct configuration=    23
   0.28017347  0.44879406  0.75557521
   0.12368876  0.73203934  0.33188376
   0.01649129  0.95740089 -0.04020549
   0.73890227  0.54084459  0.03256844
   0.48993000 -0.03256006  0.57876782
   0.83329376  0.43941931  0.31387695
   0.44797460  0.14236836  0.14018541
   0.82116347  0.33500529  0.64751405
   0.45751253  0.88752208  0.31037676
   0.46227236  0.01503565 -0.04556231
   0.13034208  0.52430239  0.13507565
   0.79179058  0.14250403  0.17560206
   0.87829951  0.96703162  0.67546704
   0.86506744  0.44816430  0.82454468
   0.44430966  0.59293044  0.56536830
   0.08534147  0.37146604  0.53425789
unknown system                          
           1
     5.138185    3.072688   -0.101680
     0.102163    5.800201    1.360268
     0.037835   -0.644294    9.649299
   Li   P    S 
   6   2   8
Direct configuration=    24
   0.28540980  0.44610503  0.75470544
   0.12484630  0.72915776  0.32970653
   0.01350843  0.96661825 -0.04443632
   0.74160890  0.53993582  0.03514341
   0.49179508 -0.03504990  0.57813603
   0.83626737  0.43863084  0.31973923
   0.44869305  0.14541819  0.14025437
   0.81904989  0.33319161  0.64807718
   0.45194491  0.88787819  0.31038613
   0.46859305  0.01582632 -0.04651768
   0.13012135  0.52709157  0.13342299
   0.79099919  0.14295282  0.17950692
   0.87809599  0.96379942  0.67849735
   0.86673478  0.44860060  0.82600797
   0.43891836  0.59329419  0.56504497
   0.07996677  0.36881765  0.52762168
unknown system                          
           1
     5.131687    3.044536   -0.084214
     0.090646    5.773450    1.348688
     0.079923   -0.654917    9.621641
   Li   P    S 
   6   2   8
Direct configuration=    25
   0.28397174  0.44506657  0.75494010
   0.12678863  0.72826188  0.33011655
   0.01185656  0.96944483 -0.04561053
   0.74075667  0.54092566  0.03590732
   0.49324914 -0.03650096  0.57744054
   0.83585376  0.43837256  0.31997647
   0.44880916  0.14339991  0.14006264
   0.81910810  0.33314779  0.64698714
   0.45080617  0.88985549  0.30850539
   0.47020276  0.01666174 -0.04451576
   0.13095067  0.52562810  0.13220444
   0.79164427  0.14592655  0.18019819
   0.87915199  0.96101945  0.68113009
   0.86782842  0.44799895  0.82590200
   0.43772398  0.59490054  0.56413588
   0.07785122  0.36815928  0.52791575
unknown system                          
           1
     5.127591    3.026785   -0.073201
     0.083385    5.756584    1.341387
     0.106460   -0.661614    9.604202
   Li   P    S 
   6   2   8
Direct configuration=    26
   0.28306127  0.44440685  0.75509000
   0.12801139  0.72770153  0.33037226
   0.01082381  0.97122445 -0.04634852
   0.74021601  0.54155296  0.03639159
   0.49416873 -0.03741832  0.57699837
   0.83559105  0.43820907  0.32012684
   0.44888071  0.14212235  0.13994044
   0.81915052  0.33311578  0.64629847
   0.45009991  0.89109613  0.30731993
   0.47120954  0.01720251 -0.04325318
   0.13147861  0.52469920  0.13143279
   0.79205193  0.14781260  0.18063525
   0.87980096  0.95927378  0.68279033
   0.86851854  0.44762056  0.82583316
   0.43697698  0.59591028  0.56356412
   0.07651327  0.36773861  0.52810437
unknown system                          
           1
     5.119551    3.007847   -0.067701
     0.072871    5.740291    1.328882
     0.135957   -0.689425    9.639388
   Li   P    S 
   6   2   8
Direct configuration=    27
   0.28003428  0.44324765  0.75567370
   0.13043137  0.72723426  0.33099296
   0.00865781  0.97415329 -0.04740618
   0.73833594  0.54333844  0.03712973
   0.49613946 -0.03875318  0.57592784
   0.83425377  0.43822445  0.31942706
   0.45026842  0.14324940  0.14031833
   0.81582163  0.33325223  0.64595618
   0.44963994  0.89122377  0.30634042
   0.47284996  0.01662737 -0.04272789
   0.13241004  0.52277147  0.13011504
   0.79215493  0.15134622  0.18106060
   0.88007840  0.95687376  0.68601927
   0.86979050  0.44652752  0.82546734
   0.43822256  0.59579566  0.56312525
   0.07746422  0.36715603  0.52787656
unknown system                          
           1
     5.108524    2.981875   -0.060159
     0.058452    5.717946    1.311733
     0.176410   -0.727565    9.687644
   Li   P    S 
   6   2   8
Direct configuration=    28
   0.27586870  0.44165081  0.75647247
   0.13374925  0.72660629  0.33183660
   0.00569898  0.97816009 -0.04884305
   0.73575258  0.54579307  0.03814215
   0.49885120 -0.04059166  0.57446225
   0.83242245  0.43823423  0.31847352
   0.45217467  0.14480634  0.14083408
   0.81125221  0.33342546  0.64549320
   0.44901619  0.89138788  0.30500413
   0.47509749  0.01584768 -0.04201370
   0.13369454  0.52011248  0.12831242
   0.79230274  0.15620625  0.18164614
   0.88042750  0.95360915  0.69042299
   0.87153753  0.44502609  0.82496487
   0.43993660  0.59563783  0.56252450
   0.07877061  0.36635636  0.52756362
unknown system                          
           1
     5.103791    2.969354   -0.058218
     0.045935    5.716152    1.312282
     0.186606   -0.735221    9.723927
   Li   P    S 
   6   2   8
Direct configuration=    29
   0.27238768  0.44046608  0.75683226
   0.13539756  0.72681260  0.33192877
   0.00328039  0.98084403 -0.04967182
   0.73330110  0.54814983  0.03800982
   0.50105851 -0.04074437  0.57310623
   0.83120627  0.43912451  0.31800278
   0.45459294  0.14514684  0.14086246
   0.81447631  0.33050316  0.64679149
   0.45037750  0.89058264  0.30467787
   0.47725798  0.01457516 -0.04179477
   0.13254839  0.52160224  0.12780660
   0.79276647  0.15751526  0.18176767
   0.87785709  0.95408352  0.69271807
   0.87144793  0.44373172  0.82446119
   0.43942652  0.59481030  0.56241674
   0.07917058  0.36506484  0.52738085
unknown system                          
           1
     5.101115    2.962275   -0.057121
     0.038858    5.715137    1.312592
     0.192371   -0.739550    9.744441
   Li   P    S 
   6   2   8
Direct configuration=    30
   0.27041562  0.43979397  0.75703564
   0.13633059  0.72693077  0.33198030
   0.00191623  0.98235701 -0.05013785
   0.73191713  0.54947867  0.03793599
   0.50230892 -0.04082995  0.57234205
   0.83051973  0.43962579  0.31773800
   0.45596197  0.14534147  0.14087789
   0.81629551  0.32885676  0.64752173
   0.45114715  0.89012872  0.30449376
   0.47847868  0.01385860 -0.04167204
   0.13190236  0.52244217  0.12752209
   0.79303061  0.15825524  0.18183607
   0.87640064  0.95435141  0.69401120
   0.87139596  0.44299997  0.82417749
   0.43913681  0.59434226  0.56235613
   0.07939533  0.36433548  0.52727776
unknown system                          
           1
     5.088995    2.961542   -0.054077
     0.037122    5.718111    1.323382
     0.189973   -0.725671    9.762257
   Li   P    S 
   6   2   8
Direct configuration=    31
   0.26707776  0.43867321  0.75705196
   0.13770330  0.72741962  0.33172161
  -0.00070272  0.98477149 -0.05080766
   0.72944429  0.55180449  0.03732794
   0.50443633 -0.04052022  0.57063062
   0.82945652  0.44114283  0.31760065
   0.45590190  0.14578866  0.14052603
   0.81752350  0.32776046  0.64756998
   0.45345261  0.88988266  0.30414150
   0.48056029  0.01351664 -0.04101749
   0.13187308  0.52335444  0.12757796
   0.79460771  0.15851467  0.18167882
   0.87309250  0.95510243  0.69599236
   0.87092665  0.44213359  0.82468708
   0.44156214  0.59079399  0.56339296
   0.07963735  0.36212938  0.52722190
unknown system                          
           1
     5.066897    2.960205   -0.048528
     0.033956    5.723532    1.343056
     0.185603   -0.700365    9.794739
   Li   P    S 
   6   2   8
Direct configuration=    32
   0.26097650  0.43663825  0.75708458
   0.14021224  0.72830871  0.33124937
  -0.00548826  0.98917901 -0.05203085
   0.72492578  0.55604988  0.03621732
   0.50832304 -0.03995133  0.56751351
   0.82751426  0.44390943  0.31734812
   0.45579207  0.14660531  0.13988459
   0.81976714  0.32576048  0.64765947
   0.45766572  0.88943151  0.30349997
   0.48436519  0.01288593 -0.03982567
   0.13182028  0.52501615  0.12767805
   0.79749015  0.15898487  0.18139164
   0.86704882  0.95646698  0.69959898
   0.87006880  0.44055355  0.82561657
   0.44599340  0.58431940  0.56528647
   0.08007810  0.35811020  0.52712410
unknown system                          
           1
     5.071397    2.960478   -0.049658
     0.034601    5.722428    1.339049
     0.186493   -0.705519    9.788123
   Li   P    S 
   6   2   8
Direct configuration=    33
   0.26222492  0.43704956  0.75707688
   0.13969896  0.72812845  0.33134576
  -0.00450967  0.98827935 -0.05178101
   0.72584975  0.55518343  0.03644425
   0.50752849 -0.04006872  0.56814716
   0.82791125  0.44334572  0.31740033
   0.45581455  0.14643850  0.14001519
   0.81930842  0.32616824  0.64764068
   0.45680404  0.88952435  0.30363036
   0.48358668  0.01301707 -0.04006781
   0.13183083  0.52467830  0.12765832
   0.79690048  0.15889015  0.18145031
   0.86828425  0.95619080  0.69886648
   0.87024433  0.44087551  0.82542712
   0.44508744  0.58564000  0.56489968
   0.07998853  0.35892764  0.52714252
unknown system                          
           1
     5.073313    2.967922   -0.048189
     0.038364    5.731161    1.345196
     0.182221   -0.695058    9.784387
   Li   P    S 
   6   2   8
Direct configuration=    34
   0.25983549  0.43624309  0.75668004
   0.14092206  0.72890230  0.33068583
  -0.00731624  0.98995672 -0.05205785
   0.72428105  0.55618473  0.03576217
   0.50936412 -0.04022612  0.56606169
   0.82730215  0.44480467  0.31732999
   0.45549711  0.14819285  0.13969075
   0.81918904  0.32456932  0.64925465
   0.45886976  0.88919001  0.30425341
   0.48432356  0.01517396 -0.03964846
   0.13327066  0.52408701  0.12814931
   0.79808879  0.15865712  0.18086427
   0.86675325  0.95563911  0.70047106
   0.86953588  0.44002818  0.82589035
   0.44469054  0.58497886  0.56520342
   0.08194602  0.35588654  0.52670561
unknown system                          
           1
     5.074905    2.974110   -0.046967
     0.041492    5.738421    1.350307
     0.178669   -0.686362    9.781280
   Li   P    S 
   6   2   8
Direct configuration=    35
   0.25785003  0.43557637  0.75635021
   0.14193756  0.72954492  0.33013653
  -0.00964975  0.99135255 -0.05228881
   0.72297636  0.55701880  0.03519435
   0.51088821 -0.04035474  0.56432686
   0.82679506  0.44601675  0.31727090
   0.45523205  0.14965040  0.13942016
   0.81909189  0.32323890  0.65059792
   0.46058705  0.88890937  0.30477185
   0.48493494  0.01696342 -0.03930044
   0.13446789  0.52359383  0.12855800
   0.79907604  0.15846360  0.18037683
   0.86548240  0.95517955  0.70180612
   0.86894796  0.43932444  0.82627604
   0.44436131  0.58442972  0.56545635
   0.08357424  0.35336045  0.52634333
unknown system                          
           1
     5.075228    2.976016   -0.041250
     0.041731    5.744429    1.359040
     0.180306   -0.670863    9.775599
   Li   P    S 
   6   2   8
Direct configuration=    36
   0.25635673  0.43507230  0.75578823
   0.14294928  0.73023588  0.32954051
  -0.01196236  0.99226321 -0.05226511
   0.72206326  0.55747090  0.03475377
   0.51227121 -0.04085912  0.56251985
   0.82659056  0.44688248  0.31722016
   0.45629147  0.15007129  0.14011739
   0.81897254  0.32230190  0.65095780
   0.46186630  0.88923169  0.30522500
   0.48499506  0.01914500 -0.03957009
   0.13510818  0.52363689  0.12893584
   0.79956988  0.15845492  0.17987929
   0.86514123  0.95417320  0.70295519
   0.86855158  0.43883725  0.82689276
   0.44379055  0.58464868  0.56557397
   0.08399777  0.35070185  0.52677166